
     Program PWSCF v.7.5 starts on 26Jun2026 at  9:24:37 

     This program is part of the open-source Quantum ESPRESSO suite
     for quantum simulation of materials; please cite
         "P. Giannozzi et al., J. Phys.:Condens. Matter 21 395502 (2009);
         "P. Giannozzi et al., J. Phys.:Condens. Matter 29 465901 (2017);
         "P. Giannozzi et al., J. Chem. Phys. 152 154105 (2020);
          URL http://www.quantum-espresso.org", 
     in publications or presentations arising from this work. More details at
     http://www.quantum-espresso.org/quote

     Parallel version (MPI & OpenMP), running on       4 processor cores
     Number of MPI processes:                 4
     Threads/MPI process:                     1

     MPI processes distributed on     1 nodes
     13970 MiB available memory on the printing compute node when the environment starts

     Reading input from c.qc.in

     Current dimensions of program PWSCF are:
     Max number of different atomic species (ntypx) = 10
     Max number of k-points (npk) =  40000
     Max angular momentum in pseudopotentials (lmaxx) =  4

     IMPORTANT: XC functional enforced from input :
     Exchange-correlation= HSE
                           (   1   4  12   4   0   0   0)
     EXX-fraction              =        0.25
     Any further DFT definition will be discarded
     Please, verify this is what you really want

     EXX Screening parameter changed:    0.9006000
     EXX fraction changed:   1.00
     DD-RSH-CAM (LMODELHF) semilocal: AEXX, BEXX =   0.1850  0.3177
     DD-RSH-CAM (LMODELHF) enabled
     AEXX =  0.1850   BEXX =  0.3177   mu(bohr^-1) =  0.9006

     R & G space division:  proc/nbgrp/npool/nimage =       4
     Subspace diagonalization in iterative solution of the eigenvalue problem:
     a serial algorithm will be used

     EXX: q-point mesh:     6    6    6
     EXX: setup a grid of 216 q-points centered on each k-point
     (k+q)-points:
   0.0000000   0.0000000   0.0000000         1    1
  -0.1666667   0.1666667  -0.1666667         2    1
  -0.3333333   0.3333333  -0.3333333         3    1
   0.5000000  -0.5000000   0.5000000         4    1
   0.3333333  -0.3333333   0.3333333         3   -1
   0.1666667  -0.1666667   0.1666667         2   -1
   0.1666667   0.1666667   0.1666667         2    3
   0.0000000   0.3333333   0.0000000         5    1
  -0.1666667   0.5000000  -0.1666667         6    1
   0.6666667  -0.3333333   0.6666667         7    1
   0.5000000  -0.1666667   0.5000000         8    1
   0.3333333   0.0000000   0.3333333         9    1
   0.3333333   0.3333333   0.3333333         3    3
   0.1666667   0.5000000   0.1666667         6    3
   0.0000000   0.6666667   0.0000000        10    1
   0.8333333  -0.1666667   0.8333333        11    1
   0.6666667   0.0000000   0.6666667        12    1
   0.5000000   0.1666667   0.5000000         8   -3
  -0.5000000  -0.5000000  -0.5000000         4    3
  -0.6666667  -0.3333333  -0.6666667         7    3
  -0.8333333  -0.1666667  -0.8333333        11    3
   0.0000000  -1.0000000   0.0000000        13    1
   0.8333333   0.1666667   0.8333333        11   -3
   0.6666667   0.3333333   0.6666667         7   -3
  -0.3333333  -0.3333333  -0.3333333         3   -3
  -0.5000000  -0.1666667  -0.5000000         8    3
  -0.6666667   0.0000000  -0.6666667        12   -1
  -0.8333333   0.1666667  -0.8333333        11   -1
   0.0000000  -0.6666667   0.0000000        10   -1
  -0.1666667  -0.5000000  -0.1666667         6   -3
  -0.1666667  -0.1666667  -0.1666667         2   -3
  -0.3333333   0.0000000  -0.3333333         9   -1
  -0.5000000   0.1666667  -0.5000000         8   -1
  -0.6666667   0.3333333  -0.6666667         7   -1
   0.1666667  -0.5000000   0.1666667         6   -1
   0.0000000  -0.3333333   0.0000000         5   -1
  -0.1666667  -0.1666667   0.1666667         2    4
  -0.3333333   0.0000000   0.0000000         5   -5
  -0.5000000   0.1666667  -0.1666667         6   -5
   0.3333333  -0.6666667   0.6666667         7   -5
   0.1666667  -0.5000000   0.5000000         8   -5
   0.0000000  -0.3333333   0.3333333         9   -5
   0.0000000   0.0000000   0.3333333         5   13
  -0.1666667   0.1666667   0.1666667         2   -2
  -0.3333333   0.3333333   0.0000000         9   13
  -0.5000000   0.5000000  -0.1666667         8   13
  -0.6666667   0.6666667  -0.3333333         7   13
   0.1666667  -0.1666667   0.5000000         6   13
   0.1666667   0.1666667   0.5000000         6  -16
   0.0000000   0.3333333   0.3333333         9   -6
  -0.1666667   0.5000000   0.1666667         6   -2
   0.6666667  -0.3333333   1.0000000        14    1
   0.5000000  -0.1666667   0.8333333        15    1
  -0.6666667   1.0000000  -0.3333333        14   13
  -0.6666667  -0.6666667  -0.3333333         7  -16
   0.1666667   0.5000000   0.5000000         8    7
  -1.0000000  -0.3333333  -0.6666667        14   -9
   0.8333333  -0.1666667  -0.8333333        11   -2
  -0.3333333  -1.0000000   0.0000000        16    1
   0.5000000   0.1666667   0.8333333        15   -3
  -0.5000000  -0.5000000  -0.1666667         8  -16
   0.3333333   0.6666667   0.6666667         7    7
  -0.8333333  -0.1666667  -0.5000000        15   -9
   0.0000000  -1.0000000   0.3333333        16   -9
   0.8333333   0.1666667  -0.8333333        11    4
   0.6666667   0.3333333   1.0000000        14   -3
  -0.3333333  -0.3333333   0.0000000         9   14
  -0.5000000  -0.1666667  -0.1666667         6    7
   0.3333333  -1.0000000   0.6666667        14   22
  -0.8333333   0.1666667  -0.5000000        15   10
  -1.0000000   0.3333333  -0.6666667        14   10
  -0.1666667  -0.5000000   0.1666667         6    4
  -0.3333333  -0.3333333   0.3333333         3    4
  -0.5000000  -0.1666667   0.1666667         6   -8
  -0.6666667   0.0000000   0.0000000        10   -5
   0.1666667  -0.8333333   0.8333333        11   -5
   0.0000000  -0.6666667   0.6666667        12   -5
  -0.1666667  -0.5000000   0.5000000         8    8
  -0.1666667  -0.1666667   0.5000000         6  -14
  -0.3333333   0.0000000   0.3333333         9    2
  -0.5000000   0.1666667   0.1666667         6    6
   0.3333333  -0.6666667   1.0000000        14   -5
   0.1666667  -0.5000000   0.8333333        15   -5
   1.0000000   0.6666667  -0.3333333        14   17
   0.0000000   0.0000000   0.6666667        10   13
  -0.1666667   0.1666667   0.5000000         6   15
  -0.3333333   0.3333333   0.3333333         3   -2
  -0.5000000   0.5000000   0.1666667         8  -15
  -0.6666667   0.6666667   0.0000000        12   13
  -0.8333333   0.8333333  -0.1666667        11   13
  -0.8333333  -0.8333333  -0.1666667        11  -16
  -1.0000000  -0.6666667  -0.3333333        14   18
  -0.1666667   0.5000000   0.5000000         8   -6
   0.6666667  -0.3333333  -0.6666667         7   -2
   0.5000000  -0.1666667  -0.8333333        15   -2
   0.3333333   0.0000000  -1.0000000        16   13
  -0.6666667  -0.6666667   0.0000000        12   14
   0.1666667   0.5000000   0.8333333        15    7
   0.0000000   0.6666667   0.6666667        12   -6
   0.8333333  -0.1666667  -0.5000000        15   12
   0.6666667   0.0000000  -0.6666667        12   -2
   0.5000000   0.1666667  -0.8333333        15    4
  -0.5000000  -0.5000000   0.1666667         8   14
   0.3333333   0.6666667   1.0000000        14    7
   0.1666667   0.8333333   0.8333333        11    7
  -1.0000000   0.0000000  -0.3333333        16   21
   0.8333333   0.1666667  -0.5000000        15  -11
   0.6666667   0.3333333  -0.6666667         7    4
   0.5000000   0.5000000  -0.5000000         4    4
   0.3333333   0.6666667  -0.6666667         7   -8
   0.1666667   0.8333333  -0.8333333        11   -8
  -1.0000000   0.0000000   0.0000000        13    5
  -0.1666667  -0.8333333   0.8333333        11    8
  -0.3333333  -0.6666667   0.6666667         7    8
   0.6666667   0.6666667  -0.3333333         7  -14
  -0.5000000  -0.1666667   0.5000000         8   -4
   0.3333333  -1.0000000  -0.6666667        14  -21
   0.1666667  -0.8333333  -0.8333333        11    6
   1.0000000   0.3333333   0.0000000        16   -5
  -0.1666667  -0.5000000   0.8333333        15    8
   0.8333333   0.8333333  -0.1666667        11  -14
   0.6666667   1.0000000  -0.3333333        14  -14
  -0.5000000   0.1666667   0.5000000         8    2
   0.3333333  -0.6666667  -0.6666667         7    6
   0.1666667  -0.5000000  -0.8333333        15    6
   0.0000000  -0.3333333  -1.0000000        16   17
   0.0000000   0.0000000  -1.0000000        13   13
   0.8333333  -0.8333333  -0.1666667        11   15
   0.6666667  -0.6666667  -0.3333333         7   15
  -0.5000000   0.5000000   0.5000000         4    2
  -0.6666667   0.6666667   0.3333333         7  -15
  -0.8333333   0.8333333   0.1666667        11  -15
  -0.8333333  -0.8333333   0.1666667        11   14
   0.0000000   0.3333333   1.0000000        16  -17
  -0.1666667   0.5000000   0.8333333        15   -6
  -0.3333333   0.6666667   0.6666667         7   -6
   0.5000000  -0.1666667  -0.5000000         8   -2
  -0.6666667  -1.0000000   0.3333333        14   14
  -0.6666667  -0.6666667   0.3333333         7   14
   0.1666667   0.5000000  -0.8333333        15   -8
  -1.0000000  -0.3333333   0.0000000        16    5
  -0.1666667   0.8333333   0.8333333        11   -6
  -0.3333333   1.0000000   0.6666667        14   21
   0.5000000   0.1666667  -0.5000000         8    4
   0.3333333   0.3333333  -0.3333333         3   -4
   0.1666667   0.5000000  -0.5000000         8   -8
   0.0000000   0.6666667  -0.6666667        12    5
  -0.1666667   0.8333333  -0.8333333        11    5
   0.6666667   0.0000000   0.0000000        10    5
   0.5000000   0.1666667  -0.1666667         6    8
   0.5000000   0.5000000  -0.1666667         8  -14
  -0.6666667  -0.3333333   0.6666667         7   -4
  -0.8333333  -0.1666667   0.5000000        15   11
   1.0000000   0.0000000   0.3333333        16  -21
  -0.1666667  -0.8333333  -0.8333333        11   -7
  -0.3333333  -0.6666667  -1.0000000        14   -7
   0.6666667   0.6666667   0.0000000        12  -14
  -0.5000000  -0.1666667   0.8333333        15   -4
  -0.6666667   0.0000000   0.6666667        12    2
  -0.8333333   0.1666667   0.5000000        15  -12
   0.0000000  -0.6666667  -0.6666667        12    6
  -0.1666667  -0.5000000  -0.8333333        15   -7
   0.8333333   0.8333333   0.1666667        11   16
  -0.3333333   0.0000000   1.0000000        16  -13
  -0.5000000   0.1666667   0.8333333        15    2
  -0.6666667   0.3333333   0.6666667         7    2
   0.1666667  -0.5000000  -0.5000000         8    6
   1.0000000   0.6666667   0.3333333        14  -18
   0.0000000   0.0000000  -0.6666667        10  -13
   0.8333333  -0.8333333   0.1666667        11  -13
   0.6666667  -0.6666667   0.0000000        12  -13
   0.5000000  -0.5000000  -0.1666667         8   15
   0.3333333  -0.3333333  -0.3333333         3    2
   0.1666667  -0.1666667  -0.5000000         6  -15
   0.1666667   0.1666667  -0.5000000         6   14
  -1.0000000  -0.6666667   0.3333333        14  -17
  -0.1666667   0.5000000  -0.8333333        15    5
  -0.3333333   0.6666667  -1.0000000        14    5
   0.5000000  -0.1666667  -0.1666667         6   -6
   0.3333333   0.0000000  -0.3333333         9   -2
   0.1666667   0.1666667  -0.1666667         2   -4
   0.0000000   0.3333333  -0.3333333         9    5
  -0.1666667   0.5000000  -0.5000000         8    5
  -0.3333333   0.6666667  -0.6666667         7    5
   0.5000000  -0.1666667   0.1666667         6    5
   0.3333333   0.0000000   0.0000000         5    5
   0.3333333   0.3333333   0.0000000         9  -14
   0.1666667   0.5000000  -0.1666667         6   -4
   1.0000000  -0.3333333   0.6666667        14  -10
   0.8333333  -0.1666667   0.5000000        15  -10
  -0.3333333   1.0000000  -0.6666667        14  -22
   0.5000000   0.1666667   0.1666667         6   -7
   0.5000000   0.5000000   0.1666667         8   16
  -0.6666667  -0.3333333  -1.0000000        14    3
  -0.8333333  -0.1666667   0.8333333        11   -4
   0.0000000   1.0000000  -0.3333333        16    9
   0.8333333   0.1666667   0.5000000        15    9
  -0.3333333  -0.6666667  -0.6666667         7   -7
   0.6666667   0.6666667   0.3333333         7   16
  -0.5000000  -0.1666667  -0.8333333        15    3
   0.3333333   1.0000000   0.0000000        16   -1
  -0.8333333   0.1666667   0.8333333        11    2
   1.0000000   0.3333333   0.6666667        14    9
  -0.1666667  -0.5000000  -0.5000000         8   -7
  -0.1666667  -0.1666667  -0.5000000         6   16
   0.6666667  -1.0000000   0.3333333        14  -13
  -0.5000000   0.1666667  -0.8333333        15   -1
  -0.6666667   0.3333333  -1.0000000        14   -1
   0.1666667  -0.5000000  -0.1666667         6    2
   0.0000000  -0.3333333  -0.3333333         9    6
   0.0000000   0.0000000  -0.3333333         5  -13
  -0.1666667   0.1666667  -0.5000000         6  -13
   0.6666667  -0.6666667   0.3333333         7  -13
   0.5000000  -0.5000000   0.1666667         8  -13
   0.3333333  -0.3333333   0.0000000         9  -13
   0.1666667  -0.1666667  -0.1666667         2    2

     Parallelization info
     --------------------
     sticks:   dense  smooth     PW     G-vecs:    dense   smooth      PW
     Min         124     124     40                 1845     1845     340
     Max         125     125     41                 1849     1849     342
     Sum         499     499    163                 7391     7391    1363

     Using Slab Decomposition



     bravais-lattice index     =            2
     lattice parameter (alat)  =       6.7410  a.u.
     unit-cell volume          =      76.5796 (a.u.)^3
     number of atoms/cell      =            2
     number of atomic types    =            1
     number of electrons       =         8.00
     number of Kohn-Sham states=           12
     kinetic-energy cutoff     =      80.0000  Ry
     charge density cutoff     =     320.0000  Ry
     cutoff for Fock operator  =     320.0000  Ry
     scf convergence threshold =      1.0E-08
     mixing beta               =       0.7000
     number of iterations used =            8  plain     mixing
     Exchange-correlation= HSE
                           (   1   4  12   4   0   0   0)
     EXX-fraction              =        1.00

     celldm(1)=   6.741000  celldm(2)=   0.000000  celldm(3)=   0.000000
     celldm(4)=   0.000000  celldm(5)=   0.000000  celldm(6)=   0.000000

     crystal axes: (cart. coord. in units of alat)
               a(1) = (  -0.500000   0.000000   0.500000 )  
               a(2) = (   0.000000   0.500000   0.500000 )  
               a(3) = (  -0.500000   0.500000   0.000000 )  

     reciprocal axes: (cart. coord. in units 2 pi/alat)
               b(1) = ( -1.000000 -1.000000  1.000000 )  
               b(2) = (  1.000000  1.000000  1.000000 )  
               b(3) = ( -1.000000  1.000000 -1.000000 )  


     PseudoPot. # 1 for C  read from file:
     ../../../../pseudos/C_ONCV_PBE-1.2.upf
     MD5 check sum: 1a5f83a7b1f58d24996abe00ed223ac6
     Pseudo is Norm-conserving, Zval =  4.0
     Generated using ONCVPSP code by D. R. Hamann
     Using radial grid of  602 points,  4 beta functions with: 
                l(1) =   0
                l(2) =   0
                l(3) =   1
                l(4) =   1

     atomic species   valence    mass     pseudopotential
     C                 4.00    12.01100     C ( 1.00)

     48 Sym. Ops., with inversion, found (24 have fractional translation)


                                    s                        frac. trans.

      isym =  1     identity                                     

 cryst.   s( 1) = (     1          0          0      )
                  (     0          1          0      )
                  (     0          0          1      )

 cart.    s( 1) = (  1.0000000  0.0000000  0.0000000 )
                  (  0.0000000  1.0000000  0.0000000 )
                  (  0.0000000  0.0000000  1.0000000 )


      isym =  2     180 deg rotation - cart. axis [0,0,1]        

 cryst.   s( 2) = (     0          1         -1      )
                  (     1          0         -1      )
                  (     0          0         -1      )

 cart.    s( 2) = ( -1.0000000  0.0000000  0.0000000 )
                  (  0.0000000 -1.0000000  0.0000000 )
                  (  0.0000000  0.0000000  1.0000000 )


      isym =  3     180 deg rotation - cart. axis [0,1,0]        

 cryst.   s( 3) = (    -1          0          0      )
                  (    -1          0          1      )
                  (    -1          1          0      )

 cart.    s( 3) = ( -1.0000000  0.0000000  0.0000000 )
                  (  0.0000000  1.0000000  0.0000000 )
                  (  0.0000000  0.0000000 -1.0000000 )


      isym =  4     180 deg rotation - cart. axis [1,0,0]        

 cryst.   s( 4) = (     0         -1          1      )
                  (     0         -1          0      )
                  (     1         -1          0      )

 cart.    s( 4) = (  1.0000000  0.0000000  0.0000000 )
                  (  0.0000000 -1.0000000  0.0000000 )
                  (  0.0000000  0.0000000 -1.0000000 )


      isym =  5     180 deg rotation - cart. axis [1,1,0]        

 cryst.   s( 5) = (     0         -1          0      )    f =( -0.2500000 )
                  (    -1          0          0      )       ( -0.2500000 )
                  (     0          0         -1      )       ( -0.2500000 )

 cart.    s( 5) = (  0.0000000  1.0000000  0.0000000 )    f =(  0.2500000 )
                  (  1.0000000  0.0000000  0.0000000 )       ( -0.2500000 )
                  (  0.0000000  0.0000000 -1.0000000 )       ( -0.2500000 )


      isym =  6     180 deg rotation - cart. axis [1,-1,0]       

 cryst.   s( 6) = (    -1          0          1      )    f =( -0.2500000 )
                  (     0         -1          1      )       ( -0.2500000 )
                  (     0          0          1      )       ( -0.2500000 )

 cart.    s( 6) = (  0.0000000 -1.0000000  0.0000000 )    f =(  0.2500000 )
                  ( -1.0000000  0.0000000  0.0000000 )       ( -0.2500000 )
                  (  0.0000000  0.0000000 -1.0000000 )       ( -0.2500000 )


      isym =  7      90 deg rotation - cart. axis [0,0,-1]       

 cryst.   s( 7) = (     0          1          0      )    f =( -0.2500000 )
                  (     0          1         -1      )       ( -0.2500000 )
                  (    -1          1          0      )       ( -0.2500000 )

 cart.    s( 7) = (  0.0000000  1.0000000  0.0000000 )    f =(  0.2500000 )
                  ( -1.0000000  0.0000000  0.0000000 )       ( -0.2500000 )
                  (  0.0000000  0.0000000  1.0000000 )       ( -0.2500000 )


      isym =  8      90 deg rotation - cart. axis [0,0,1]        

 cryst.   s( 8) = (     1          0         -1      )    f =( -0.2500000 )
                  (     1          0          0      )       ( -0.2500000 )
                  (     1         -1          0      )       ( -0.2500000 )

 cart.    s( 8) = (  0.0000000 -1.0000000  0.0000000 )    f =(  0.2500000 )
                  (  1.0000000  0.0000000  0.0000000 )       ( -0.2500000 )
                  (  0.0000000  0.0000000  1.0000000 )       ( -0.2500000 )


      isym =  9     180 deg rotation - cart. axis [1,0,1]        

 cryst.   s( 9) = (    -1          0          0      )    f =( -0.2500000 )
                  (     0          0         -1      )       ( -0.2500000 )
                  (     0         -1          0      )       ( -0.2500000 )

 cart.    s( 9) = (  0.0000000  0.0000000  1.0000000 )    f =(  0.2500000 )
                  (  0.0000000 -1.0000000  0.0000000 )       ( -0.2500000 )
                  (  1.0000000  0.0000000  0.0000000 )       ( -0.2500000 )


      isym = 10     180 deg rotation - cart. axis [-1,0,1]       

 cryst.   s(10) = (     1          0          0      )    f =( -0.2500000 )
                  (     1         -1          0      )       ( -0.2500000 )
                  (     1          0         -1      )       ( -0.2500000 )

 cart.    s(10) = (  0.0000000  0.0000000 -1.0000000 )    f =(  0.2500000 )
                  (  0.0000000 -1.0000000  0.0000000 )       ( -0.2500000 )
                  ( -1.0000000  0.0000000  0.0000000 )       ( -0.2500000 )


      isym = 11      90 deg rotation - cart. axis [0,1,0]        

 cryst.   s(11) = (     0          1         -1      )    f =( -0.2500000 )
                  (    -1          1          0      )       ( -0.2500000 )
                  (     0          1          0      )       ( -0.2500000 )

 cart.    s(11) = (  0.0000000  0.0000000  1.0000000 )    f =(  0.2500000 )
                  (  0.0000000  1.0000000  0.0000000 )       ( -0.2500000 )
                  ( -1.0000000  0.0000000  0.0000000 )       ( -0.2500000 )


      isym = 12      90 deg rotation - cart. axis [0,-1,0]       

 cryst.   s(12) = (     0         -1          1      )    f =( -0.2500000 )
                  (     0          0          1      )       ( -0.2500000 )
                  (    -1          0          1      )       ( -0.2500000 )

 cart.    s(12) = (  0.0000000  0.0000000 -1.0000000 )    f =(  0.2500000 )
                  (  0.0000000  1.0000000  0.0000000 )       ( -0.2500000 )
                  (  1.0000000  0.0000000  0.0000000 )       ( -0.2500000 )


      isym = 13     180 deg rotation - cart. axis [0,1,1]        

 cryst.   s(13) = (    -1          1          0      )    f =( -0.2500000 )
                  (     0          1          0      )       ( -0.2500000 )
                  (     0          1         -1      )       ( -0.2500000 )

 cart.    s(13) = ( -1.0000000  0.0000000  0.0000000 )    f =(  0.2500000 )
                  (  0.0000000  0.0000000  1.0000000 )       ( -0.2500000 )
                  (  0.0000000  1.0000000  0.0000000 )       ( -0.2500000 )


      isym = 14     180 deg rotation - cart. axis [0,1,-1]       

 cryst.   s(14) = (     0          0         -1      )    f =( -0.2500000 )
                  (     0         -1          0      )       ( -0.2500000 )
                  (    -1          0          0      )       ( -0.2500000 )

 cart.    s(14) = ( -1.0000000  0.0000000  0.0000000 )    f =(  0.2500000 )
                  (  0.0000000  0.0000000 -1.0000000 )       ( -0.2500000 )
                  (  0.0000000 -1.0000000  0.0000000 )       ( -0.2500000 )


      isym = 15      90 deg rotation - cart. axis [-1,0,0]       

 cryst.   s(15) = (     0          0          1      )    f =( -0.2500000 )
                  (    -1          0          1      )       ( -0.2500000 )
                  (     0         -1          1      )       ( -0.2500000 )

 cart.    s(15) = (  1.0000000  0.0000000  0.0000000 )    f =(  0.2500000 )
                  (  0.0000000  0.0000000  1.0000000 )       ( -0.2500000 )
                  (  0.0000000 -1.0000000  0.0000000 )       ( -0.2500000 )


      isym = 16      90 deg rotation - cart. axis [1,0,0]        

 cryst.   s(16) = (     1         -1          0      )    f =( -0.2500000 )
                  (     1          0         -1      )       ( -0.2500000 )
                  (     1          0          0      )       ( -0.2500000 )

 cart.    s(16) = (  1.0000000  0.0000000  0.0000000 )    f =(  0.2500000 )
                  (  0.0000000  0.0000000 -1.0000000 )       ( -0.2500000 )
                  (  0.0000000  1.0000000  0.0000000 )       ( -0.2500000 )


      isym = 17     120 deg rotation - cart. axis [-1,-1,-1]     

 cryst.   s(17) = (    -1          0          1      )
                  (    -1          1          0      )
                  (    -1          0          0      )

 cart.    s(17) = (  0.0000000  1.0000000  0.0000000 )
                  (  0.0000000  0.0000000  1.0000000 )
                  (  1.0000000  0.0000000  0.0000000 )


      isym = 18     120 deg rotation - cart. axis [-1,1,1]       

 cryst.   s(18) = (     0          1          0      )
                  (     0          0          1      )
                  (     1          0          0      )

 cart.    s(18) = (  0.0000000 -1.0000000  0.0000000 )
                  (  0.0000000  0.0000000  1.0000000 )
                  ( -1.0000000  0.0000000  0.0000000 )


      isym = 19     120 deg rotation - cart. axis [1,1,-1]       

 cryst.   s(19) = (     1          0         -1      )
                  (     0          0         -1      )
                  (     0          1         -1      )

 cart.    s(19) = (  0.0000000  1.0000000  0.0000000 )
                  (  0.0000000  0.0000000 -1.0000000 )
                  ( -1.0000000  0.0000000  0.0000000 )


      isym = 20     120 deg rotation - cart. axis [1,-1,1]       

 cryst.   s(20) = (     0         -1          0      )
                  (     1         -1          0      )
                  (     0         -1          1      )

 cart.    s(20) = (  0.0000000 -1.0000000  0.0000000 )
                  (  0.0000000  0.0000000 -1.0000000 )
                  (  1.0000000  0.0000000  0.0000000 )


      isym = 21     120 deg rotation - cart. axis [1,1,1]        

 cryst.   s(21) = (     0          0         -1      )
                  (     0          1         -1      )
                  (     1          0         -1      )

 cart.    s(21) = (  0.0000000  0.0000000  1.0000000 )
                  (  1.0000000  0.0000000  0.0000000 )
                  (  0.0000000  1.0000000  0.0000000 )


      isym = 22     120 deg rotation - cart. axis [-1,1,-1]      

 cryst.   s(22) = (    -1          1          0      )
                  (    -1          0          0      )
                  (    -1          0          1      )

 cart.    s(22) = (  0.0000000  0.0000000  1.0000000 )
                  ( -1.0000000  0.0000000  0.0000000 )
                  (  0.0000000 -1.0000000  0.0000000 )


      isym = 23     120 deg rotation - cart. axis [1,-1,-1]      

 cryst.   s(23) = (     0          0          1      )
                  (     1          0          0      )
                  (     0          1          0      )

 cart.    s(23) = (  0.0000000  0.0000000 -1.0000000 )
                  ( -1.0000000  0.0000000  0.0000000 )
                  (  0.0000000  1.0000000  0.0000000 )


      isym = 24     120 deg rotation - cart. axis [-1,-1,1]      

 cryst.   s(24) = (     1         -1          0      )
                  (     0         -1          1      )
                  (     0         -1          0      )

 cart.    s(24) = (  0.0000000  0.0000000 -1.0000000 )
                  (  1.0000000  0.0000000  0.0000000 )
                  (  0.0000000 -1.0000000  0.0000000 )


      isym = 25     inversion                                    

 cryst.   s(25) = (    -1          0          0      )    f =( -0.2500000 )
                  (     0         -1          0      )       ( -0.2500000 )
                  (     0          0         -1      )       ( -0.2500000 )

 cart.    s(25) = ( -1.0000000  0.0000000  0.0000000 )    f =(  0.2500000 )
                  (  0.0000000 -1.0000000  0.0000000 )       ( -0.2500000 )
                  (  0.0000000  0.0000000 -1.0000000 )       ( -0.2500000 )


      isym = 26     inv. 180 deg rotation - cart. axis [0,0,1]   

 cryst.   s(26) = (     0         -1          1      )    f =( -0.2500000 )
                  (    -1          0          1      )       ( -0.2500000 )
                  (     0          0          1      )       ( -0.2500000 )

 cart.    s(26) = (  1.0000000  0.0000000  0.0000000 )    f =(  0.2500000 )
                  (  0.0000000  1.0000000  0.0000000 )       ( -0.2500000 )
                  (  0.0000000  0.0000000 -1.0000000 )       ( -0.2500000 )


      isym = 27     inv. 180 deg rotation - cart. axis [0,1,0]   

 cryst.   s(27) = (     1          0          0      )    f =( -0.2500000 )
                  (     1          0         -1      )       ( -0.2500000 )
                  (     1         -1          0      )       ( -0.2500000 )

 cart.    s(27) = (  1.0000000  0.0000000  0.0000000 )    f =(  0.2500000 )
                  (  0.0000000 -1.0000000  0.0000000 )       ( -0.2500000 )
                  (  0.0000000  0.0000000  1.0000000 )       ( -0.2500000 )


      isym = 28     inv. 180 deg rotation - cart. axis [1,0,0]   

 cryst.   s(28) = (     0          1         -1      )    f =( -0.2500000 )
                  (     0          1          0      )       ( -0.2500000 )
                  (    -1          1          0      )       ( -0.2500000 )

 cart.    s(28) = ( -1.0000000  0.0000000  0.0000000 )    f =(  0.2500000 )
                  (  0.0000000  1.0000000  0.0000000 )       ( -0.2500000 )
                  (  0.0000000  0.0000000  1.0000000 )       ( -0.2500000 )


      isym = 29     inv. 180 deg rotation - cart. axis [1,1,0]   

 cryst.   s(29) = (     0          1          0      )
                  (     1          0          0      )
                  (     0          0          1      )

 cart.    s(29) = (  0.0000000 -1.0000000  0.0000000 )
                  ( -1.0000000  0.0000000  0.0000000 )
                  (  0.0000000  0.0000000  1.0000000 )


      isym = 30     inv. 180 deg rotation - cart. axis [1,-1,0]  

 cryst.   s(30) = (     1          0         -1      )
                  (     0          1         -1      )
                  (     0          0         -1      )

 cart.    s(30) = (  0.0000000  1.0000000  0.0000000 )
                  (  1.0000000  0.0000000  0.0000000 )
                  (  0.0000000  0.0000000  1.0000000 )


      isym = 31     inv.  90 deg rotation - cart. axis [0,0,-1]  

 cryst.   s(31) = (     0         -1          0      )
                  (     0         -1          1      )
                  (     1         -1          0      )

 cart.    s(31) = (  0.0000000 -1.0000000  0.0000000 )
                  (  1.0000000  0.0000000  0.0000000 )
                  (  0.0000000  0.0000000 -1.0000000 )


      isym = 32     inv.  90 deg rotation - cart. axis [0,0,1]   

 cryst.   s(32) = (    -1          0          1      )
                  (    -1          0          0      )
                  (    -1          1          0      )

 cart.    s(32) = (  0.0000000  1.0000000  0.0000000 )
                  ( -1.0000000  0.0000000  0.0000000 )
                  (  0.0000000  0.0000000 -1.0000000 )


      isym = 33     inv. 180 deg rotation - cart. axis [1,0,1]   

 cryst.   s(33) = (     1          0          0      )
                  (     0          0          1      )
                  (     0          1          0      )

 cart.    s(33) = (  0.0000000  0.0000000 -1.0000000 )
                  (  0.0000000  1.0000000  0.0000000 )
                  ( -1.0000000  0.0000000  0.0000000 )


      isym = 34     inv. 180 deg rotation - cart. axis [-1,0,1]  

 cryst.   s(34) = (    -1          0          0      )
                  (    -1          1          0      )
                  (    -1          0          1      )

 cart.    s(34) = (  0.0000000  0.0000000  1.0000000 )
                  (  0.0000000  1.0000000  0.0000000 )
                  (  1.0000000  0.0000000  0.0000000 )


      isym = 35     inv.  90 deg rotation - cart. axis [0,1,0]   

 cryst.   s(35) = (     0         -1          1      )
                  (     1         -1          0      )
                  (     0         -1          0      )

 cart.    s(35) = (  0.0000000  0.0000000 -1.0000000 )
                  (  0.0000000 -1.0000000  0.0000000 )
                  (  1.0000000  0.0000000  0.0000000 )


      isym = 36     inv.  90 deg rotation - cart. axis [0,-1,0]  

 cryst.   s(36) = (     0          1         -1      )
                  (     0          0         -1      )
                  (     1          0         -1      )

 cart.    s(36) = (  0.0000000  0.0000000  1.0000000 )
                  (  0.0000000 -1.0000000  0.0000000 )
                  ( -1.0000000  0.0000000  0.0000000 )


      isym = 37     inv. 180 deg rotation - cart. axis [0,1,1]   

 cryst.   s(37) = (     1         -1          0      )
                  (     0         -1          0      )
                  (     0         -1          1      )

 cart.    s(37) = (  1.0000000  0.0000000  0.0000000 )
                  (  0.0000000  0.0000000 -1.0000000 )
                  (  0.0000000 -1.0000000  0.0000000 )


      isym = 38     inv. 180 deg rotation - cart. axis [0,1,-1]  

 cryst.   s(38) = (     0          0          1      )
                  (     0          1          0      )
                  (     1          0          0      )

 cart.    s(38) = (  1.0000000  0.0000000  0.0000000 )
                  (  0.0000000  0.0000000  1.0000000 )
                  (  0.0000000  1.0000000  0.0000000 )


      isym = 39     inv.  90 deg rotation - cart. axis [-1,0,0]  

 cryst.   s(39) = (     0          0         -1      )
                  (     1          0         -1      )
                  (     0          1         -1      )

 cart.    s(39) = ( -1.0000000  0.0000000  0.0000000 )
                  (  0.0000000  0.0000000 -1.0000000 )
                  (  0.0000000  1.0000000  0.0000000 )


      isym = 40     inv.  90 deg rotation - cart. axis [1,0,0]   

 cryst.   s(40) = (    -1          1          0      )
                  (    -1          0          1      )
                  (    -1          0          0      )

 cart.    s(40) = ( -1.0000000  0.0000000  0.0000000 )
                  (  0.0000000  0.0000000  1.0000000 )
                  (  0.0000000 -1.0000000  0.0000000 )


      isym = 41     inv. 120 deg rotation - cart. axis [-1,-1,-1]

 cryst.   s(41) = (     1          0         -1      )    f =( -0.2500000 )
                  (     1         -1          0      )       ( -0.2500000 )
                  (     1          0          0      )       ( -0.2500000 )

 cart.    s(41) = (  0.0000000 -1.0000000  0.0000000 )    f =(  0.2500000 )
                  (  0.0000000  0.0000000 -1.0000000 )       ( -0.2500000 )
                  ( -1.0000000  0.0000000  0.0000000 )       ( -0.2500000 )


      isym = 42     inv. 120 deg rotation - cart. axis [-1,1,1]  

 cryst.   s(42) = (     0         -1          0      )    f =( -0.2500000 )
                  (     0          0         -1      )       ( -0.2500000 )
                  (    -1          0          0      )       ( -0.2500000 )

 cart.    s(42) = (  0.0000000  1.0000000  0.0000000 )    f =(  0.2500000 )
                  (  0.0000000  0.0000000 -1.0000000 )       ( -0.2500000 )
                  (  1.0000000  0.0000000  0.0000000 )       ( -0.2500000 )


      isym = 43     inv. 120 deg rotation - cart. axis [1,1,-1]  

 cryst.   s(43) = (    -1          0          1      )    f =( -0.2500000 )
                  (     0          0          1      )       ( -0.2500000 )
                  (     0         -1          1      )       ( -0.2500000 )

 cart.    s(43) = (  0.0000000 -1.0000000  0.0000000 )    f =(  0.2500000 )
                  (  0.0000000  0.0000000  1.0000000 )       ( -0.2500000 )
                  (  1.0000000  0.0000000  0.0000000 )       ( -0.2500000 )


      isym = 44     inv. 120 deg rotation - cart. axis [1,-1,1]  

 cryst.   s(44) = (     0          1          0      )    f =( -0.2500000 )
                  (    -1          1          0      )       ( -0.2500000 )
                  (     0          1         -1      )       ( -0.2500000 )

 cart.    s(44) = (  0.0000000  1.0000000  0.0000000 )    f =(  0.2500000 )
                  (  0.0000000  0.0000000  1.0000000 )       ( -0.2500000 )
                  ( -1.0000000  0.0000000  0.0000000 )       ( -0.2500000 )


      isym = 45     inv. 120 deg rotation - cart. axis [1,1,1]   

 cryst.   s(45) = (     0          0          1      )    f =( -0.2500000 )
                  (     0         -1          1      )       ( -0.2500000 )
                  (    -1          0          1      )       ( -0.2500000 )

 cart.    s(45) = (  0.0000000  0.0000000 -1.0000000 )    f =(  0.2500000 )
                  ( -1.0000000  0.0000000  0.0000000 )       ( -0.2500000 )
                  (  0.0000000 -1.0000000  0.0000000 )       ( -0.2500000 )


      isym = 46     inv. 120 deg rotation - cart. axis [-1,1,-1] 

 cryst.   s(46) = (     1         -1          0      )    f =( -0.2500000 )
                  (     1          0          0      )       ( -0.2500000 )
                  (     1          0         -1      )       ( -0.2500000 )

 cart.    s(46) = (  0.0000000  0.0000000 -1.0000000 )    f =(  0.2500000 )
                  (  1.0000000  0.0000000  0.0000000 )       ( -0.2500000 )
                  (  0.0000000  1.0000000  0.0000000 )       ( -0.2500000 )


      isym = 47     inv. 120 deg rotation - cart. axis [1,-1,-1] 

 cryst.   s(47) = (     0          0         -1      )    f =( -0.2500000 )
                  (    -1          0          0      )       ( -0.2500000 )
                  (     0         -1          0      )       ( -0.2500000 )

 cart.    s(47) = (  0.0000000  0.0000000  1.0000000 )    f =(  0.2500000 )
                  (  1.0000000  0.0000000  0.0000000 )       ( -0.2500000 )
                  (  0.0000000 -1.0000000  0.0000000 )       ( -0.2500000 )


      isym = 48     inv. 120 deg rotation - cart. axis [-1,-1,1] 

 cryst.   s(48) = (    -1          1          0      )    f =( -0.2500000 )
                  (     0          1         -1      )       ( -0.2500000 )
                  (     0          1          0      )       ( -0.2500000 )

 cart.    s(48) = (  0.0000000  0.0000000  1.0000000 )    f =(  0.2500000 )
                  ( -1.0000000  0.0000000  0.0000000 )       ( -0.2500000 )
                  (  0.0000000  1.0000000  0.0000000 )       ( -0.2500000 )


     point group O_h (m-3m) 
     there are 10 classes
     the character table:

       E     8C3   3C2   6C4   6C2'  i     8S6   3s_h  6S4   6s_d 
A_1g   1.00  1.00  1.00  1.00  1.00  1.00  1.00  1.00  1.00  1.00
A_2g   1.00  1.00  1.00 -1.00 -1.00  1.00  1.00  1.00 -1.00 -1.00
E_g    2.00 -1.00  2.00  0.00  0.00  2.00 -1.00  2.00  0.00  0.00
T_1g   3.00  0.00 -1.00  1.00 -1.00  3.00  0.00 -1.00  1.00 -1.00
T_2g   3.00  0.00 -1.00 -1.00  1.00  3.00  0.00 -1.00 -1.00  1.00
A_1u   1.00  1.00  1.00  1.00  1.00 -1.00 -1.00 -1.00 -1.00 -1.00
A_2u   1.00  1.00  1.00 -1.00 -1.00 -1.00 -1.00 -1.00  1.00  1.00
E_u    2.00 -1.00  2.00  0.00  0.00 -2.00  1.00 -2.00  0.00  0.00
T_1u   3.00  0.00 -1.00  1.00 -1.00 -3.00  0.00  1.00 -1.00  1.00
T_2u   3.00  0.00 -1.00 -1.00  1.00 -3.00  0.00  1.00  1.00 -1.00

     the symmetry operations in each class and the name of the first element:

     E        1
          identity                                               
     8C3     17   19   20   18   24   21   22   23
          120 deg rotation - cart. axis [-1,-1,-1]               
     3C2      2    4    3
          180 deg rotation - cart. axis [0,0,1]                  
     6C4      7    8   15   16   12   11
           90 deg rotation - cart. axis [0,0,-1]                 
     6C2'     5    6   14   13   10    9
          180 deg rotation - cart. axis [1,1,0]                  
     i       25
          inversion                                              
     8S6     41   43   44   42   48   45   46   47
          inv. 120 deg rotation - cart. axis [-1,-1,-1]          
     3s_h    26   28   27
          inv. 180 deg rotation - cart. axis [0,0,1]             
     6S4     31   32   39   40   36   35
          inv.  90 deg rotation - cart. axis [0,0,-1]            
     6s_d    29   30   38   37   34   33
          inv. 180 deg rotation - cart. axis [1,1,0]             

   Cartesian axes

     site n.     atom                  positions (alat units)
         1        C      tau(   1) = (   0.0000000   0.0000000   0.0000000  )
         2        C      tau(   2) = (  -0.2500000   0.2500000   0.2500000  )

   Crystallographic axes

     site n.     atom                  positions (cryst. coord.)
         1        C      tau(   1) = (  0.0000000  0.0000000  0.0000000  )
         2        C      tau(   2) = (  0.2500000  0.2500000  0.2500000  )

     number of k points=    16
                       cart. coord. in units 2pi/alat
        k(    1) = (   0.0000000   0.0000000   0.0000000), wk =   0.0092593
        k(    2) = (  -0.1666667   0.1666667  -0.1666667), wk =   0.0740741
        k(    3) = (  -0.3333333   0.3333333  -0.3333333), wk =   0.0740741
        k(    4) = (   0.5000000  -0.5000000   0.5000000), wk =   0.0370370
        k(    5) = (   0.0000000   0.3333333   0.0000000), wk =   0.0555556
        k(    6) = (  -0.1666667   0.5000000  -0.1666667), wk =   0.2222222
        k(    7) = (   0.6666667  -0.3333333   0.6666667), wk =   0.2222222
        k(    8) = (   0.5000000  -0.1666667   0.5000000), wk =   0.2222222
        k(    9) = (   0.3333333   0.0000000   0.3333333), wk =   0.1111111
        k(   10) = (   0.0000000   0.6666667   0.0000000), wk =   0.0555556
        k(   11) = (   0.8333333  -0.1666667   0.8333333), wk =   0.2222222
        k(   12) = (   0.6666667  -0.0000000   0.6666667), wk =   0.1111111
        k(   13) = (   0.0000000  -1.0000000   0.0000000), wk =   0.0277778
        k(   14) = (   0.6666667  -0.3333333   1.0000000), wk =   0.2222222
        k(   15) = (   0.5000000  -0.1666667   0.8333333), wk =   0.2222222
        k(   16) = (  -0.3333333  -1.0000000   0.0000000), wk =   0.1111111

                       cryst. coord.
        k(    1) = (   0.0000000   0.0000000   0.0000000), wk =   0.0092593
        k(    2) = (   0.0000000   0.0000000   0.1666667), wk =   0.0740741
        k(    3) = (   0.0000000   0.0000000   0.3333333), wk =   0.0740741
        k(    4) = (   0.0000000   0.0000000  -0.5000000), wk =   0.0370370
        k(    5) = (   0.0000000   0.1666667   0.1666667), wk =   0.0555556
        k(    6) = (   0.0000000   0.1666667   0.3333333), wk =   0.2222222
        k(    7) = (   0.0000000   0.1666667  -0.5000000), wk =   0.2222222
        k(    8) = (   0.0000000   0.1666667  -0.3333333), wk =   0.2222222
        k(    9) = (   0.0000000   0.1666667  -0.1666667), wk =   0.1111111
        k(   10) = (   0.0000000   0.3333333   0.3333333), wk =   0.0555556
        k(   11) = (   0.0000000   0.3333333  -0.5000000), wk =   0.2222222
        k(   12) = (   0.0000000   0.3333333  -0.3333333), wk =   0.1111111
        k(   13) = (   0.0000000  -0.5000000  -0.5000000), wk =   0.0277778
        k(   14) = (   0.1666667   0.3333333  -0.5000000), wk =   0.2222222
        k(   15) = (   0.1666667   0.3333333  -0.3333333), wk =   0.2222222
        k(   16) = (   0.1666667  -0.5000000  -0.3333333), wk =   0.1111111

     Dense  grid:     7391 G-vectors     FFT dimensions: (  32,  32,  32)

     Dynamical RAM for                 wfc:       0.04 MB

     Dynamical RAM for     wfc (w. buffer):       0.72 MB

     Dynamical RAM for                 EXX:     147.62 MB

     Dynamical RAM for           str. fact:       0.03 MB

     Dynamical RAM for           local pot:       0.00 MB

     Dynamical RAM for          nlocal pot:       0.06 MB

     Dynamical RAM for                qrad:       0.46 MB

     Dynamical RAM for          rho,v,vnew:       0.27 MB

     Dynamical RAM for               rhoin:       0.09 MB

     Dynamical RAM for            rho*nmix:       0.45 MB

     Dynamical RAM for           G-vectors:       0.12 MB

     Dynamical RAM for          h,s,v(r/c):       0.03 MB

     Dynamical RAM for          <psi|beta>:       0.00 MB

     Dynamical RAM for                 psi:       0.08 MB

     Dynamical RAM for                hpsi:       0.08 MB

     Dynamical RAM for      wfcinit/wfcrot:       0.09 MB

     Estimated static dynamical RAM per process >     149.74 MB

     Estimated max dynamical RAM per process >     150.39 MB

     Estimated total dynamical RAM >     601.55 MB
     EXX: ACE will be initialized later

     Initial potential from superposition of free atoms

     starting charge       7.9861, renormalised to       8.0000
     Starting wfcs are random

     total cpu time spent up to now is        0.1 secs

     Self-consistent Calculation

     iteration #  1     ecut=    80.00 Ry     beta= 0.70
     Davidson diagonalization with overlap

---- Real-time Memory Report at c_bands before calling an iterative solver
            65 MiB given to the printing process from OS
             0 MiB allocation reported by mallinfo(arena+hblkhd)
         13943 MiB available memory on the node where the printing process lives
------------------
     ethr =  1.00E-02,  avg # of iterations =  7.2

     total cpu time spent up to now is        0.2 secs

     total energy              =     -22.77861478 Ry
     estimated scf accuracy    <       0.11562241 Ry

     iteration #  2     ecut=    80.00 Ry     beta= 0.70
     Davidson diagonalization with overlap

---- Real-time Memory Report at c_bands before calling an iterative solver
            67 MiB given to the printing process from OS
             0 MiB allocation reported by mallinfo(arena+hblkhd)
         13938 MiB available memory on the node where the printing process lives
------------------
     ethr =  1.45E-03,  avg # of iterations =  1.0

     total cpu time spent up to now is        0.3 secs

     total energy              =     -22.78644936 Ry
     estimated scf accuracy    <       0.00236069 Ry

     iteration #  3     ecut=    80.00 Ry     beta= 0.70
     Davidson diagonalization with overlap

---- Real-time Memory Report at c_bands before calling an iterative solver
            67 MiB given to the printing process from OS
             0 MiB allocation reported by mallinfo(arena+hblkhd)
         13938 MiB available memory on the node where the printing process lives
------------------
     ethr =  2.95E-05,  avg # of iterations =  2.2

     total cpu time spent up to now is        0.3 secs

     total energy              =     -22.78668302 Ry
     estimated scf accuracy    <       0.00005065 Ry

     iteration #  4     ecut=    80.00 Ry     beta= 0.70
     Davidson diagonalization with overlap

---- Real-time Memory Report at c_bands before calling an iterative solver
            67 MiB given to the printing process from OS
             0 MiB allocation reported by mallinfo(arena+hblkhd)
         13938 MiB available memory on the node where the printing process lives
------------------
     ethr =  6.33E-07,  avg # of iterations =  2.9

     total cpu time spent up to now is        0.4 secs

     total energy              =     -22.78668879 Ry
     estimated scf accuracy    <       0.00000007 Ry

     iteration #  5     ecut=    80.00 Ry     beta= 0.70
     Davidson diagonalization with overlap

---- Real-time Memory Report at c_bands before calling an iterative solver
            67 MiB given to the printing process from OS
             0 MiB allocation reported by mallinfo(arena+hblkhd)
         13937 MiB available memory on the node where the printing process lives
------------------
     ethr =  8.65E-10,  avg # of iterations =  2.8

     total cpu time spent up to now is        0.4 secs

     total energy              =     -22.78668891 Ry
     estimated scf accuracy    <       0.00000001 Ry

     iteration #  6     ecut=    80.00 Ry     beta= 0.70
     Davidson diagonalization with overlap

---- Real-time Memory Report at c_bands before calling an iterative solver
            67 MiB given to the printing process from OS
             0 MiB allocation reported by mallinfo(arena+hblkhd)
         13937 MiB available memory on the node where the printing process lives
------------------
     ethr =  1.27E-10,  avg # of iterations =  2.0

     total cpu time spent up to now is        0.4 secs

     End of self-consistent calculation

          k = 0.0000 0.0000 0.0000 (   941 PWs)   bands (ev):

    -8.1207  13.3096  13.3096  13.3096  18.9065  18.9065  18.9065  26.6491
    32.6324  39.9781  39.9781  40.9012

     occupation numbers 
     1.0000   1.0000   1.0000   1.0000   0.0000   0.0000   0.0000   0.0000
     0.0000   0.0000   0.0000   0.0000

          k =-0.1667 0.1667-0.1667 (   917 PWs)   bands (ev):

    -7.3550   9.5670  12.2886  12.2886  20.2444  20.2444  20.7145  27.2747
    33.6072  36.2238  36.2238  39.1976

     occupation numbers 
     1.0000   1.0000   1.0000   1.0000   0.0000   0.0000   0.0000   0.0000
     0.0000   0.0000   0.0000   0.0000

          k =-0.3333 0.3333-0.3333 (   926 PWs)   bands (ev):

    -5.1090   3.9653  10.9930  10.9930  21.5936  21.5936  21.9084  28.5400
    34.2629  36.6156  36.6156  38.5740

     occupation numbers 
     1.0000   1.0000   1.0000   1.0000   0.0000   0.0000   0.0000   0.0000
     0.0000   0.0000   0.0000   0.0000

          k = 0.5000-0.5000 0.5000 (   912 PWs)   bands (ev):

    -2.3505  -0.0343  10.5121  10.5121  21.7831  21.7831  22.1936  28.9932
    35.1771  37.4659  39.2786  39.2786

     occupation numbers 
     1.0000   1.0000   1.0000   1.0000   0.0000   0.0000   0.0000   0.0000
     0.0000   0.0000   0.0000   0.0000

          k = 0.0000 0.3333 0.0000 (   921 PWs)   bands (ev):

    -7.1004  10.7439  10.7439  11.0802  18.2583  22.3273  22.3273  26.0275
    33.2224  34.1747  41.2776  43.2670

     occupation numbers 
     1.0000   1.0000   1.0000   1.0000   0.0000   0.0000   0.0000   0.0000
     0.0000   0.0000   0.0000   0.0000

          k =-0.1667 0.5000-0.1667 (   926 PWs)   bands (ev):

    -5.3460   6.1088   9.4822   9.8945  19.3467  24.0914  24.1570  25.1186
    34.2284  34.9856  40.4312  42.1586

     occupation numbers 
     1.0000   1.0000   1.0000   1.0000   0.0000   0.0000   0.0000   0.0000
     0.0000   0.0000   0.0000   0.0000

          k = 0.6667-0.3333 0.6667 (   928 PWs)   bands (ev):

    -2.3746   1.3259   8.3355   9.3496  20.4394  24.0307  24.5480  27.5895
    33.4456  37.0898  39.9438  41.2934

     occupation numbers 
     1.0000   1.0000   1.0000   1.0000   0.0000   0.0000   0.0000   0.0000
     0.0000   0.0000   0.0000   0.0000

          k = 0.5000-0.1667 0.5000 (   922 PWs)   bands (ev):

    -3.4400   2.8001   7.6518  10.3528  21.3983  22.8753  24.3544  28.2248
    33.3278  35.2149  37.9405  43.2591

     occupation numbers 
     1.0000   1.0000   1.0000   1.0000   0.0000   0.0000   0.0000   0.0000
     0.0000   0.0000   0.0000   0.0000

          k = 0.3333 0.0000 0.3333 (   925 PWs)   bands (ev):

    -6.0941   7.6317   8.5150  11.9347  20.9382  21.9469  22.6689  27.0177
    33.5056  34.4024  36.7239  45.3061

     occupation numbers 
     1.0000   1.0000   1.0000   1.0000   0.0000   0.0000   0.0000   0.0000
     0.0000   0.0000   0.0000   0.0000

          k = 0.0000 0.6667 0.0000 (   922 PWs)   bands (ev):

    -4.1059   6.1552   8.0079   8.0079  17.5012  21.1039  27.3228  27.3228
    34.5968  36.4693  45.1740  47.9621

     occupation numbers 
     1.0000   1.0000   1.0000   1.0000   0.0000   0.0000   0.0000   0.0000
     0.0000   0.0000   0.0000   0.0000

          k = 0.8333-0.1667 0.8333 (   924 PWs)   bands (ev):

    -1.5267   3.1194   5.6755   7.6808  18.6195  21.7013  28.1025  28.4857
    34.4784  36.7159  42.4254  46.8283

     occupation numbers 
     1.0000   1.0000   1.0000   1.0000   0.0000   0.0000   0.0000   0.0000
     0.0000   0.0000   0.0000   0.0000

          k = 0.6667-0.0000 0.6667 (   935 PWs)   bands (ev):

    -0.7074   2.4031   3.9561   8.6314  19.7012  26.2058  26.8339  28.2773
    30.2778  37.1149  38.0691  47.1471

     occupation numbers 
     1.0000   1.0000   1.0000   1.0000   0.0000   0.0000   0.0000   0.0000
     0.0000   0.0000   0.0000   0.0000

          k = 0.0000-1.0000 0.0000 (   934 PWs)   bands (ev):

     0.5794   0.5794   7.0209   7.0209  18.1185  18.1185  30.0597  30.0597
    36.4923  36.4923  45.7351  45.7351

     occupation numbers 
     1.0000   1.0000   1.0000   1.0000   0.0000   0.0000   0.0000   0.0000
     0.0000   0.0000   0.0000   0.0000

          k = 0.6667-0.3333 1.0000 (   918 PWs)   bands (ev):

    -3.1712   4.6435   6.0161   8.5162  21.0289  23.3324  24.7455  27.4440
    33.9778  35.3341  40.4525  46.5620

     occupation numbers 
     1.0000   1.0000   1.0000   1.0000   0.0000   0.0000   0.0000   0.0000
     0.0000   0.0000   0.0000   0.0000

          k = 0.5000-0.1667 0.8333 (   930 PWs)   bands (ev):

    -0.5765   1.6236   5.5084   7.3967  22.1279  23.3639  27.0404  27.2899
    31.4836  36.6532  40.6537  44.4540

     occupation numbers 
     1.0000   1.0000   1.0000   1.0000   0.0000   0.0000   0.0000   0.0000
     0.0000   0.0000   0.0000   0.0000

          k =-0.3333-1.0000 0.0000 (   920 PWs)   bands (ev):

     1.1230   1.1230   5.5172   5.5172  21.5625  21.5625  27.7963  27.7963
    34.9700  34.9700  44.0260  44.0260

     occupation numbers 
     1.0000   1.0000   1.0000   1.0000   0.0000   0.0000   0.0000   0.0000
     0.0000   0.0000   0.0000   0.0000

     highest occupied, lowest unoccupied level (ev):    13.3096   17.5012

!    total energy              =     -22.78668891 Ry
     estimated scf accuracy    <          1.5E-10 Ry

     convergence has been achieved in   6 iterations

     Using ACE for calculation of exact exchange

     EXX grid:     7391 G-vectors     FFT dimensions: (  32,  32,  32)
     ACE projected onto    12 (nbndproj) and applied to    12 (nbnd) bands

     EXX: now go back to refine exchange calculation

     total cpu time spent up to now is       55.5 secs

     Self-consistent Calculation

     iteration #  1     ecut=    80.00 Ry     beta= 0.70
     Davidson diagonalization with overlap

---- Real-time Memory Report at c_bands before calling an iterative solver
           450 MiB given to the printing process from OS
             0 MiB allocation reported by mallinfo(arena+hblkhd)
         12418 MiB available memory on the node where the printing process lives
------------------
     ethr =  1.27E-10,  avg # of iterations =  6.2

     total cpu time spent up to now is       55.6 secs

     total energy              =     -22.77770595 Ry
     estimated scf accuracy    <       0.00020359 Ry

     iteration #  2     ecut=    80.00 Ry     beta= 0.70
     Davidson diagonalization with overlap

---- Real-time Memory Report at c_bands before calling an iterative solver
           450 MiB given to the printing process from OS
             0 MiB allocation reported by mallinfo(arena+hblkhd)
         12418 MiB available memory on the node where the printing process lives
------------------
     ethr =  2.54E-06,  avg # of iterations =  1.0

     total cpu time spent up to now is       55.7 secs

     total energy              =     -22.77771672 Ry
     estimated scf accuracy    <       0.00000711 Ry

     iteration #  3     ecut=    80.00 Ry     beta= 0.70
     Davidson diagonalization with overlap

---- Real-time Memory Report at c_bands before calling an iterative solver
           450 MiB given to the printing process from OS
             0 MiB allocation reported by mallinfo(arena+hblkhd)
         12417 MiB available memory on the node where the printing process lives
------------------
     ethr =  8.89E-08,  avg # of iterations =  1.9

     total cpu time spent up to now is       55.7 secs

     total energy              =     -22.77771743 Ry
     estimated scf accuracy    <       0.00000010 Ry

     iteration #  4     ecut=    80.00 Ry     beta= 0.70
     Davidson diagonalization with overlap

---- Real-time Memory Report at c_bands before calling an iterative solver
           450 MiB given to the printing process from OS
             0 MiB allocation reported by mallinfo(arena+hblkhd)
         12417 MiB available memory on the node where the printing process lives
------------------
     ethr =  1.22E-09,  avg # of iterations =  1.7

     total cpu time spent up to now is       55.8 secs

     End of self-consistent calculation

          k = 0.0000 0.0000 0.0000 (   941 PWs)   bands (ev):

   -10.5948  12.6098  12.6098  12.6098  19.7876  19.7876  19.7876  27.9462
    33.6481  41.1797  41.1797  42.1082

     occupation numbers 
     1.0000   1.0000   1.0000   1.0000   0.0000   0.0000   0.0000   0.0000
     0.0000   0.0000   0.0000   0.0000

          k =-0.1667 0.1667-0.1667 (   917 PWs)   bands (ev):

    -9.7751   8.5509  11.5172  11.5172  21.2260  21.2260  21.6470  28.6432
    34.7514  37.3119  37.3119  40.3895

     occupation numbers 
     1.0000   1.0000   1.0000   1.0000   0.0000   0.0000   0.0000   0.0000
     0.0000   0.0000   0.0000   0.0000

          k =-0.3333 0.3333-0.3333 (   926 PWs)   bands (ev):

    -7.3777   2.4592  10.1014  10.1014  22.6564  22.6564  22.8562  29.9695
    35.5237  37.8134  37.8134  40.0485

     occupation numbers 
     1.0000   1.0000   1.0000   1.0000   0.0000   0.0000   0.0000   0.0000
     0.0000   0.0000   0.0000   0.0000

          k = 0.5000-0.5000 0.5000 (   912 PWs)   bands (ev):

    -4.4730  -1.8061   9.5771   9.5771  22.8313  22.8313  23.1302  30.3532
    36.6129  38.9989  40.7214  40.7214

     occupation numbers 
     1.0000   1.0000   1.0000   1.0000   0.0000   0.0000   0.0000   0.0000
     0.0000   0.0000   0.0000   0.0000

          k = 0.0000 0.3333 0.0000 (   921 PWs)   bands (ev):

    -9.5023   9.8608   9.8609  10.1345  19.0459  23.4593  23.4593  27.2069
    34.3981  35.3830  42.5282  44.5261

     occupation numbers 
     1.0000   1.0000   1.0000   1.0000   0.0000   0.0000   0.0000   0.0000
     0.0000   0.0000   0.0000   0.0000

          k =-0.1667 0.5000-0.1667 (   926 PWs)   bands (ev):

    -7.6275   4.7737   8.4837   8.8856  20.1947  25.3076  25.4251  26.1864
    35.6946  36.3500  41.7188  43.4134

     occupation numbers 
     1.0000   1.0000   1.0000   1.0000   0.0000   0.0000   0.0000   0.0000
     0.0000   0.0000   0.0000   0.0000

          k = 0.6667-0.3333 0.6667 (   928 PWs)   bands (ev):

    -4.4668  -0.3765   7.1989   8.3293  21.3146  25.2642  25.7215  28.9458
    34.8228  38.7700  41.3555  42.5263

     occupation numbers 
     1.0000   1.0000   1.0000   1.0000   0.0000   0.0000   0.0000   0.0000
     0.0000   0.0000   0.0000   0.0000

          k = 0.5000-0.1667 0.5000 (   922 PWs)   bands (ev):

    -5.5940   1.1984   6.4713   9.4041  22.3385  24.0699  25.4925  29.6924
    34.6630  36.3383  39.5890  44.5602

     occupation numbers 
     1.0000   1.0000   1.0000   1.0000   0.0000   0.0000   0.0000   0.0000
     0.0000   0.0000   0.0000   0.0000

          k = 0.3333 0.0000 0.3333 (   925 PWs)   bands (ev):

    -8.4269   6.4073   7.4483  11.1137  22.0119  22.9996  23.7199  28.3306
    34.5021  35.7131  38.0978  46.5853

     occupation numbers 
     1.0000   1.0000   1.0000   1.0000   0.0000   0.0000   0.0000   0.0000
     0.0000   0.0000   0.0000   0.0000

          k = 0.0000 0.6667 0.0000 (   922 PWs)   bands (ev):

    -6.3007   4.7494   6.8907   6.8907  18.1883  21.9040  28.8595  28.8597
    36.1682  38.0143  46.5331  49.4292

     occupation numbers 
     1.0000   1.0000   1.0000   1.0000   0.0000   0.0000   0.0000   0.0000
     0.0000   0.0000   0.0000   0.0000

          k = 0.8333-0.1667 0.8333 (   924 PWs)   bands (ev):

    -3.5401   1.4654   4.3804   6.5350  19.3453  22.6079  29.6990  30.0637
    36.0365  38.4073  43.7801  48.2263

     occupation numbers 
     1.0000   1.0000   1.0000   1.0000   0.0000   0.0000   0.0000   0.0000
     0.0000   0.0000   0.0000   0.0000

          k = 0.6667-0.0000 0.6667 (   935 PWs)   bands (ev):

    -2.6823   0.7081   2.5328   7.5514  20.4844  27.6785  28.2437  29.8155
    31.4103  38.2514  39.8422  48.4891

     occupation numbers 
     1.0000   1.0000   1.0000   1.0000   0.0000   0.0000   0.0000   0.0000
     0.0000   0.0000   0.0000   0.0000

          k = 0.0000-1.0000 0.0000 (   934 PWs)   bands (ev):

    -1.2722  -1.2722   5.8266   5.8266  18.7960  18.7960  31.8438  31.8438
    38.1726  38.1726  47.1043  47.1043

     occupation numbers 
     1.0000   1.0000   1.0000   1.0000   0.0000   0.0000   0.0000   0.0000
     0.0000   0.0000   0.0000   0.0000

          k = 0.6667-0.3333 1.0000 (   918 PWs)   bands (ev):

    -5.3010   3.1321   4.7415   7.4276  21.9956  24.3104  25.9761  28.9677
    35.3872  36.8954  41.8807  47.9214

     occupation numbers 
     1.0000   1.0000   1.0000   1.0000   0.0000   0.0000   0.0000   0.0000
     0.0000   0.0000   0.0000   0.0000

          k = 0.5000-0.1667 0.8333 (   930 PWs)   bands (ev):

    -2.5532  -0.0715   4.1487   6.2348  23.0772  24.4716  28.5035  28.7521
    32.7012  38.3874  42.0750  45.7585

     occupation numbers 
     1.0000   1.0000   1.0000   1.0000   0.0000   0.0000   0.0000   0.0000
     0.0000   0.0000   0.0000   0.0000

          k =-0.3333-1.0000 0.0000 (   920 PWs)   bands (ev):

    -0.7038  -0.7038   4.2189   4.2189  22.4781  22.4781  29.3097  29.3097
    36.5846  36.5846  45.4660  45.4660

     occupation numbers 
     1.0000   1.0000   1.0000   1.0000   0.0000   0.0000   0.0000   0.0000
     0.0000   0.0000   0.0000   0.0000

     highest occupied, lowest unoccupied level (ev):    12.6098   18.1883

!    total energy              =     -22.77771744 Ry
     estimated scf accuracy    <          4.4E-10 Ry

     convergence has been achieved in   4 iterations

     Using ACE for calculation of exact exchange
     ACE projected onto    12 (nbndproj) and applied to    12 (nbnd) bands

     total energy              =     -22.77781620 Ry
     Harris-Foulkes estimate   =     -22.77781620 Ry
     est. exchange err (dexx)  =       0.00009876 Ry
     - averaged Fock potential =       2.77203739 Ry
     + Fock energy (ACE)       =      -1.38664167 Ry

     EXX: now go back to refine exchange calculation

     total cpu time spent up to now is      110.9 secs

     Self-consistent Calculation

     iteration #  1     ecut=    80.00 Ry     beta= 0.70
     Davidson diagonalization with overlap

---- Real-time Memory Report at c_bands before calling an iterative solver
           450 MiB given to the printing process from OS
             0 MiB allocation reported by mallinfo(arena+hblkhd)
         12419 MiB available memory on the node where the printing process lives
------------------
     ethr =  1.22E-09,  avg # of iterations =  4.0

     total cpu time spent up to now is      110.9 secs

     total energy              =     -22.77782368 Ry
     estimated scf accuracy    <       0.00000079 Ry

     iteration #  2     ecut=    80.00 Ry     beta= 0.70
     Davidson diagonalization with overlap

---- Real-time Memory Report at c_bands before calling an iterative solver
           450 MiB given to the printing process from OS
             0 MiB allocation reported by mallinfo(arena+hblkhd)
         12419 MiB available memory on the node where the printing process lives
------------------
     ethr =  9.93E-09,  avg # of iterations =  1.0

     total cpu time spent up to now is      111.0 secs

     total energy              =     -22.77782369 Ry
     estimated scf accuracy    <       0.00000005 Ry

     iteration #  3     ecut=    80.00 Ry     beta= 0.70
     Davidson diagonalization with overlap

---- Real-time Memory Report at c_bands before calling an iterative solver
           450 MiB given to the printing process from OS
             0 MiB allocation reported by mallinfo(arena+hblkhd)
         12419 MiB available memory on the node where the printing process lives
------------------
     ethr =  5.63E-10,  avg # of iterations =  1.0

     total cpu time spent up to now is      111.0 secs

     End of self-consistent calculation

          k = 0.0000 0.0000 0.0000 (   941 PWs)   bands (ev):

   -10.5967  12.5967  12.5967  12.5967  19.8033  19.8033  19.8033  27.9536
    33.6512  41.1742  41.1742  42.1098

     occupation numbers 
     1.0000   1.0000   1.0000   1.0000   0.0000   0.0000   0.0000   0.0000
     0.0000   0.0000   0.0000   0.0000

          k =-0.1667 0.1667-0.1667 (   917 PWs)   bands (ev):

    -9.7772   8.5473  11.5086  11.5086  21.2372  21.2372  21.6547  28.6506
    34.7554  37.3088  37.3088  40.3918

     occupation numbers 
     1.0000   1.0000   1.0000   1.0000   0.0000   0.0000   0.0000   0.0000
     0.0000   0.0000   0.0000   0.0000

          k =-0.3333 0.3333-0.3333 (   926 PWs)   bands (ev):

    -7.3801   2.4580  10.0957  10.0957  22.6651  22.6651  22.8611  29.9770
    35.5276  37.8108  37.8108  40.0529

     occupation numbers 
     1.0000   1.0000   1.0000   1.0000   0.0000   0.0000   0.0000   0.0000
     0.0000   0.0000   0.0000   0.0000

          k = 0.5000-0.5000 0.5000 (   912 PWs)   bands (ev):

    -4.4772  -1.8053   9.5716   9.5716  22.8394  22.8394  23.1351  30.3608
    36.6180  39.0033  40.7209  40.7209

     occupation numbers 
     1.0000   1.0000   1.0000   1.0000   0.0000   0.0000   0.0000   0.0000
     0.0000   0.0000   0.0000   0.0000

          k = 0.0000 0.3333 0.0000 (   921 PWs)   bands (ev):

    -9.5045   9.8560   9.8560  10.1257  19.0589  23.4666  23.4666  27.2132
    34.3977  35.3874  42.5226  44.5274

     occupation numbers 
     1.0000   1.0000   1.0000   1.0000   0.0000   0.0000   0.0000   0.0000
     0.0000   0.0000   0.0000   0.0000

          k =-0.1667 0.5000-0.1667 (   926 PWs)   bands (ev):

    -7.6298   4.7712   8.4801   8.8811  20.2034  25.3136  25.4312  26.1907
    35.6969  36.3548  41.7162  43.4145

     occupation numbers 
     1.0000   1.0000   1.0000   1.0000   0.0000   0.0000   0.0000   0.0000
     0.0000   0.0000   0.0000   0.0000

          k = 0.6667-0.3333 0.6667 (   928 PWs)   bands (ev):

    -4.4703  -0.3771   7.1960   8.3255  21.3216  25.2707  25.7262  28.9518
    34.8266  38.7749  41.3544  42.5261

     occupation numbers 
     1.0000   1.0000   1.0000   1.0000   0.0000   0.0000   0.0000   0.0000
     0.0000   0.0000   0.0000   0.0000

          k = 0.5000-0.1667 0.5000 (   922 PWs)   bands (ev):

    -5.5968   1.1970   6.4694   9.3991  22.3454  24.0778  25.4963  29.6999
    34.6668  36.3348  39.5938  44.5594

     occupation numbers 
     1.0000   1.0000   1.0000   1.0000   0.0000   0.0000   0.0000   0.0000
     0.0000   0.0000   0.0000   0.0000

          k = 0.3333 0.0000 0.3333 (   925 PWs)   bands (ev):

    -8.4291   6.4033   7.4476  11.1058  22.0228  23.0078  23.7231  28.3377
    34.4981  35.7177  38.0997  46.5826

     occupation numbers 
     1.0000   1.0000   1.0000   1.0000   0.0000   0.0000   0.0000   0.0000
     0.0000   0.0000   0.0000   0.0000

          k = 0.0000 0.6667 0.0000 (   922 PWs)   bands (ev):

    -6.3030   4.7445   6.8879   6.8879  18.1965  21.9086  28.8662  28.8662
    36.1722  38.0200  46.5281  49.4299

     occupation numbers 
     1.0000   1.0000   1.0000   1.0000   0.0000   0.0000   0.0000   0.0000
     0.0000   0.0000   0.0000   0.0000

          k = 0.8333-0.1667 0.8333 (   924 PWs)   bands (ev):

    -3.5430   1.4611   4.3808   6.5320  19.3514  22.6118  29.7062  30.0710
    36.0410  38.4129  43.7774  48.2262

     occupation numbers 
     1.0000   1.0000   1.0000   1.0000   0.0000   0.0000   0.0000   0.0000
     0.0000   0.0000   0.0000   0.0000

          k = 0.6667-0.0000 0.6667 (   935 PWs)   bands (ev):

    -2.6863   0.7047   2.5347   7.5480  20.4904  27.6861  28.2500  29.8235
    31.4096  38.2472  39.8480  48.4893

     occupation numbers 
     1.0000   1.0000   1.0000   1.0000   0.0000   0.0000   0.0000   0.0000
     0.0000   0.0000   0.0000   0.0000

          k = 0.0000-1.0000 0.0000 (   934 PWs)   bands (ev):

    -1.2753  -1.2753   5.8237   5.8237  18.8018  18.8018  31.8524  31.8524
    38.1786  38.1786  47.1014  47.1014

     occupation numbers 
     1.0000   1.0000   1.0000   1.0000   0.0000   0.0000   0.0000   0.0000
     0.0000   0.0000   0.0000   0.0000

          k = 0.6667-0.3333 1.0000 (   918 PWs)   bands (ev):

    -5.3037   3.1277   4.7416   7.4257  22.0015  24.3139  25.9826  28.9743
    35.3911  36.8982  41.8813  47.9207

     occupation numbers 
     1.0000   1.0000   1.0000   1.0000   0.0000   0.0000   0.0000   0.0000
     0.0000   0.0000   0.0000   0.0000

          k = 0.5000-0.1667 0.8333 (   930 PWs)   bands (ev):

    -2.5577  -0.0727   4.1475   6.2343  23.0813  24.4769  28.5107  28.7590
    32.7014  38.3922  42.0746  45.7576

     occupation numbers 
     1.0000   1.0000   1.0000   1.0000   0.0000   0.0000   0.0000   0.0000
     0.0000   0.0000   0.0000   0.0000

          k =-0.3333-1.0000 0.0000 (   920 PWs)   bands (ev):

    -0.7080  -0.7080   4.2195   4.2195  22.4820  22.4820  29.3168  29.3168
    36.5888  36.5888  45.4650  45.4650

     occupation numbers 
     1.0000   1.0000   1.0000   1.0000   0.0000   0.0000   0.0000   0.0000
     0.0000   0.0000   0.0000   0.0000

     highest occupied, lowest unoccupied level (ev):    12.5967   18.1965

!    total energy              =     -22.77782369 Ry
     estimated scf accuracy    <          1.9E-10 Ry

     convergence has been achieved in   3 iterations

     Using ACE for calculation of exact exchange
     ACE projected onto    12 (nbndproj) and applied to    12 (nbnd) bands

     total energy              =     -22.77782430 Ry
     Harris-Foulkes estimate   =     -22.77782430 Ry
     est. exchange err (dexx)  =       0.00000061 Ry
     - averaged Fock potential =       2.77344205 Ry
     + Fock energy (ACE)       =      -1.38680099 Ry

     EXX: now go back to refine exchange calculation

     total cpu time spent up to now is      165.2 secs

     Self-consistent Calculation

     iteration #  1     ecut=    80.00 Ry     beta= 0.70
     Davidson diagonalization with overlap

---- Real-time Memory Report at c_bands before calling an iterative solver
           450 MiB given to the printing process from OS
             0 MiB allocation reported by mallinfo(arena+hblkhd)
         12420 MiB available memory on the node where the printing process lives
------------------
     ethr =  5.63E-10,  avg # of iterations =  2.1

     total cpu time spent up to now is      165.3 secs

     End of self-consistent calculation

          k = 0.0000 0.0000 0.0000 (   941 PWs)   bands (ev):

   -10.5968  12.5954  12.5954  12.5954  19.8049  19.8049  19.8049  27.9542
    33.6515  41.1739  41.1739  42.1100

     occupation numbers 
     1.0000   1.0000   1.0000   1.0000   0.0000   0.0000   0.0000   0.0000
     0.0000   0.0000   0.0000   0.0000

          k =-0.1667 0.1667-0.1667 (   917 PWs)   bands (ev):

    -9.7773   8.5469  11.5077  11.5077  21.2383  21.2383  21.6554  28.6513
    34.7557  37.3087  37.3087  40.3920

     occupation numbers 
     1.0000   1.0000   1.0000   1.0000   0.0000   0.0000   0.0000   0.0000
     0.0000   0.0000   0.0000   0.0000

          k =-0.3333 0.3333-0.3333 (   926 PWs)   bands (ev):

    -7.3802   2.4579  10.0951  10.0951  22.6659  22.6659  22.8616  29.9777
    35.5279  37.8107  37.8107  40.0533

     occupation numbers 
     1.0000   1.0000   1.0000   1.0000   0.0000   0.0000   0.0000   0.0000
     0.0000   0.0000   0.0000   0.0000

          k = 0.5000-0.5000 0.5000 (   912 PWs)   bands (ev):

    -4.4774  -1.8052   9.5711   9.5711  22.8403  22.8403  23.1355  30.3615
    36.6183  39.0037  40.7210  40.7210

     occupation numbers 
     1.0000   1.0000   1.0000   1.0000   0.0000   0.0000   0.0000   0.0000
     0.0000   0.0000   0.0000   0.0000

          k = 0.0000 0.3333 0.0000 (   921 PWs)   bands (ev):

    -9.5046   9.8556   9.8556  10.1248  19.0601  23.4673  23.4673  27.2138
    34.3978  35.3877  42.5223  44.5276

     occupation numbers 
     1.0000   1.0000   1.0000   1.0000   0.0000   0.0000   0.0000   0.0000
     0.0000   0.0000   0.0000   0.0000

          k =-0.1667 0.5000-0.1667 (   926 PWs)   bands (ev):

    -7.6299   4.7709   8.4798   8.8807  20.2043  25.3141  25.4318  26.1912
    35.6972  36.3551  41.7160  43.4147

     occupation numbers 
     1.0000   1.0000   1.0000   1.0000   0.0000   0.0000   0.0000   0.0000
     0.0000   0.0000   0.0000   0.0000

          k = 0.6667-0.3333 0.6667 (   928 PWs)   bands (ev):

    -4.4705  -0.3771   7.1957   8.3251  21.3223  25.2714  25.7267  28.9523
    34.8269  38.7753  41.3544  42.5261

     occupation numbers 
     1.0000   1.0000   1.0000   1.0000   0.0000   0.0000   0.0000   0.0000
     0.0000   0.0000   0.0000   0.0000

          k = 0.5000-0.1667 0.5000 (   922 PWs)   bands (ev):

    -5.5969   1.1969   6.4692   9.3987  22.3461  24.0786  25.4966  29.7006
    34.6671  36.3346  39.5942  44.5594

     occupation numbers 
     1.0000   1.0000   1.0000   1.0000   0.0000   0.0000   0.0000   0.0000
     0.0000   0.0000   0.0000   0.0000

          k = 0.3333 0.0000 0.3333 (   925 PWs)   bands (ev):

    -8.4293   6.4029   7.4475  11.1050  22.0239  23.0086  23.7234  28.3383
    34.4979  35.7181  38.0999  46.5825

     occupation numbers 
     1.0000   1.0000   1.0000   1.0000   0.0000   0.0000   0.0000   0.0000
     0.0000   0.0000   0.0000   0.0000

          k = 0.0000 0.6667 0.0000 (   922 PWs)   bands (ev):

    -6.3031   4.7440   6.8877   6.8877  18.1973  21.9091  28.8668  28.8668
    36.1726  38.0205  46.5278  49.4299

     occupation numbers 
     1.0000   1.0000   1.0000   1.0000   0.0000   0.0000   0.0000   0.0000
     0.0000   0.0000   0.0000   0.0000

          k = 0.8333-0.1667 0.8333 (   924 PWs)   bands (ev):

    -3.5432   1.4608   4.3809   6.5317  19.3520  22.6122  29.7069  30.0716
    36.0414  38.4133  43.7773  48.2263

     occupation numbers 
     1.0000   1.0000   1.0000   1.0000   0.0000   0.0000   0.0000   0.0000
     0.0000   0.0000   0.0000   0.0000

          k = 0.6667-0.0000 0.6667 (   935 PWs)   bands (ev):

    -2.6866   0.7045   2.5349   7.5478  20.4910  27.6868  28.2506  29.8242
    31.4094  38.2469  39.8485  48.4893

     occupation numbers 
     1.0000   1.0000   1.0000   1.0000   0.0000   0.0000   0.0000   0.0000
     0.0000   0.0000   0.0000   0.0000

          k = 0.0000-1.0000 0.0000 (   934 PWs)   bands (ev):

    -1.2755  -1.2755   5.8235   5.8235  18.8023  18.8023  31.8532  31.8532
    38.1791  38.1791  47.1011  47.1011

     occupation numbers 
     1.0000   1.0000   1.0000   1.0000   0.0000   0.0000   0.0000   0.0000
     0.0000   0.0000   0.0000   0.0000

          k = 0.6667-0.3333 1.0000 (   918 PWs)   bands (ev):

    -5.3039   3.1273   4.7416   7.4255  22.0021  24.3142  25.9832  28.9749
    35.3914  36.8985  41.8814  47.9207

     occupation numbers 
     1.0000   1.0000   1.0000   1.0000   0.0000   0.0000   0.0000   0.0000
     0.0000   0.0000   0.0000   0.0000

          k = 0.5000-0.1667 0.8333 (   930 PWs)   bands (ev):

    -2.5580  -0.0727   4.1474   6.2342  23.0817  24.4774  28.5114  28.7597
    32.7013  38.3926  42.0746  45.7576

     occupation numbers 
     1.0000   1.0000   1.0000   1.0000   0.0000   0.0000   0.0000   0.0000
     0.0000   0.0000   0.0000   0.0000

          k =-0.3333-1.0000 0.0000 (   920 PWs)   bands (ev):

    -0.7083  -0.7083   4.2195   4.2195  22.4824  22.4824  29.3175  29.3175
    36.5891  36.5891  45.4650  45.4650

     occupation numbers 
     1.0000   1.0000   1.0000   1.0000   0.0000   0.0000   0.0000   0.0000
     0.0000   0.0000   0.0000   0.0000

     highest occupied, lowest unoccupied level (ev):    12.5954   18.1973

!    total energy              =     -22.77782435 Ry
     estimated scf accuracy    <          4.6E-09 Ry

     convergence has been achieved in   1 iterations

     Using ACE for calculation of exact exchange
     ACE projected onto    12 (nbndproj) and applied to    12 (nbnd) bands

!!   total energy              =     -22.77782435 Ry
     Harris-Foulkes estimate   =     -22.77782436 Ry
     est. exchange err (dexx)  =          4.6E-09 Ry
     - averaged Fock potential =       2.77362279 Ry
     + Fock energy (ACE)       =      -1.38682180 Ry

     EXX self-consistency reached

     Writing all to output data dir ./out_qc/cqc.save/ :
     XML data file, charge density, pseudopotentials, collected wavefunctions

     init_run     :      0.12s CPU      0.13s WALL (       1 calls)
     electrons    :      0.63s CPU      0.71s WALL (       4 calls)

     Called by init_run:
     aceinit0     :      0.00s CPU      0.00s WALL (       1 calls)
     wfcinit      :      0.02s CPU      0.02s WALL (       1 calls)
     wfcinit:wfcr :      0.02s CPU      0.02s WALL (      16 calls)
     potinit      :      0.00s CPU      0.00s WALL (       1 calls)
     hinit0       :      0.09s CPU      0.09s WALL (       1 calls)

     Called by electrons:
     c_bands      :      0.50s CPU      0.57s WALL (      14 calls)
     sum_band     :      0.08s CPU      0.09s WALL (      14 calls)
     v_of_rho     :      0.05s CPU      0.05s WALL (      16 calls)
     v_h          :      0.00s CPU      0.00s WALL (      16 calls)
     v_xc         :      0.05s CPU      0.05s WALL (      16 calls)
     mix_rho      :      0.00s CPU      0.00s WALL (      14 calls)

     Called by c_bands:
     init_us_2    :      0.01s CPU      0.01s WALL (     464 calls)
     cegterg      :      0.49s CPU      0.55s WALL (     224 calls)

     Called by sum_band:
     sum_band:wei :      0.00s CPU      0.00s WALL (      14 calls)
     sum_band:loo :      0.07s CPU      0.09s WALL (      14 calls)
     sum_band:buf :      0.00s CPU      0.00s WALL (     224 calls)
     sum_band:ini :      0.00s CPU      0.00s WALL (     224 calls)

     Called by *egterg:
     cdiaghg      :      0.05s CPU      0.06s WALL (     768 calls)
     cegterg:over :      0.02s CPU      0.02s WALL (     592 calls)
     cegterg:upda :      0.01s CPU      0.01s WALL (     592 calls)
     cegterg:last :      0.01s CPU      0.01s WALL (     472 calls)
     h_psi        :      0.41s CPU      0.46s WALL (     832 calls)
     g_psi        :      0.00s CPU      0.00s WALL (     592 calls)

     Called by h_psi:
     h_psi:calbec :      0.01s CPU      0.01s WALL (     832 calls)
     vloc_psi     :      0.38s CPU      0.43s WALL (     832 calls)
                                        0.00s GPU  (     832 calls)
     add_vuspsi   :      0.00s CPU      0.01s WALL (     832 calls)

     General routines
     calbec       :      0.02s CPU      0.03s WALL (    1551 calls)
     fft          :      0.10s CPU      0.10s WALL (     154 calls)
     ffts         :      0.00s CPU      0.00s WALL (      14 calls)
     fftw         :      0.39s CPU      0.44s WALL (   17602 calls)
     fftc         :    132.08s CPU    151.78s WALL ( 3981312 calls)
     fftcw        :      0.06s CPU      0.08s WALL (    2304 calls)

     Parallel routines

     EXX routines
     exx_grid     :      0.00s CPU      0.01s WALL (       1 calls)
     exxinit      :      1.02s CPU      1.40s WALL (       4 calls)
     vexx         :    189.60s CPU    217.75s WALL (      64 calls)
     matcalc      :      0.01s CPU      0.01s WALL (     719 calls)
     aceupdate    :      0.00s CPU      0.00s WALL (      64 calls)
     vexxace      :      0.01s CPU      0.01s WALL (     543 calls)
     aceinit      :    189.61s CPU    217.75s WALL (      64 calls)

     PWSCF        :   3m11.40s CPU   3m40.05s WALL


   This run was terminated on:   9:28:17  26Jun2026            

=------------------------------------------------------------------------------=
   JOB DONE.
=------------------------------------------------------------------------------=
