
     Program PWSCF v.7.5 starts on 15Jun2026 at 18:27:42 

     This program is part of the open-source Quantum ESPRESSO suite
     for quantum simulation of materials; please cite
         "P. Giannozzi et al., J. Phys.:Condens. Matter 21 395502 (2009);
         "P. Giannozzi et al., J. Phys.:Condens. Matter 29 465901 (2017);
         "P. Giannozzi et al., J. Chem. Phys. 152 154105 (2020);
          URL http://www.quantum-espresso.org", 
     in publications or presentations arising from this work. More details at
     http://www.quantum-espresso.org/quote

     Serial multi-threaded version, running on    4 processor cores
     14189 MiB available memory on the printing compute node when the environment starts

     Reading input from pbe.nscf.in

     Current dimensions of program PWSCF are:
     Max number of different atomic species (ntypx) = 10
     Max number of k-points (npk) =  40000
     Max angular momentum in pseudopotentials (lmaxx) =  4

     Atomic positions and unit cell read from directory:
     ./out/mgo.save/



     G-vector sticks info
     --------------------
     sticks:   dense  smooth     PW     G-vecs:    dense   smooth      PW
     Sum         685     685    211                12039    12039    2109

     Using Slab Decomposition



     bravais-lattice index     =            2
     lattice parameter (alat)  =       7.9104  a.u.
     unit-cell volume          =     123.7472 (a.u.)^3
     number of atoms/cell      =            2
     number of atomic types    =            2
     number of electrons       =        16.00
     number of Kohn-Sham states=           40
     kinetic-energy cutoff     =      80.0000  Ry
     charge density cutoff     =     320.0000  Ry
     Exchange-correlation= PBE
                           (   1   4   3   4   0   0   0)

     celldm(1)=   7.910400  celldm(2)=   0.000000  celldm(3)=   0.000000
     celldm(4)=   0.000000  celldm(5)=   0.000000  celldm(6)=   0.000000

     crystal axes: (cart. coord. in units of alat)
               a(1) = (  -0.500000   0.000000   0.500000 )  
               a(2) = (   0.000000   0.500000   0.500000 )  
               a(3) = (  -0.500000   0.500000   0.000000 )  

     reciprocal axes: (cart. coord. in units 2 pi/alat)
               b(1) = ( -1.000000 -1.000000  1.000000 )  
               b(2) = (  1.000000  1.000000  1.000000 )  
               b(3) = ( -1.000000  1.000000 -1.000000 )  


     PseudoPot. # 1 for Mg read from file:
     ../../../pseudos/Mg_ONCV_PBE-1.2.upf
     MD5 check sum: 330956729b1f868fdecd9f5113f6a961
     Pseudo is Norm-conserving, Zval = 10.0
     Generated using ONCVPSP code by D. R. Hamann
     Using radial grid of  602 points,  4 beta functions with: 
                l(1) =   0
                l(2) =   0
                l(3) =   1
                l(4) =   1

     PseudoPot. # 2 for O  read from file:
     ../../../pseudos/O_ONCV_PBE-1.2.upf
     MD5 check sum: e36c48deb68f4e355fffe4602be2c42c
     Pseudo is Norm-conserving, Zval =  6.0
     Generated using ONCVPSP code by D. R. Hamann
     Using radial grid of  602 points,  4 beta functions with: 
                l(1) =   0
                l(2) =   0
                l(3) =   1
                l(4) =   1

     atomic species   valence    mass     pseudopotential
     Mg               10.00    24.30500     Mg( 1.00)
     O                 6.00    15.99900     O ( 1.00)

     No symmetry found


                                    s                        frac. trans.

      isym =  1     identity                                     

 cryst.   s( 1) = (     1          0          0      )
                  (     0          1          0      )
                  (     0          0          1      )

 cart.    s( 1) = (  1.0000000  0.0000000  0.0000000 )
                  (  0.0000000  1.0000000  0.0000000 )
                  (  0.0000000  0.0000000  1.0000000 )


     point group C_1 (1)    
     there are  1 classes
     the character table:

       E    
A      1.00

     the symmetry operations in each class and the name of the first element:

     E        1
          identity                                               

   Cartesian axes

     site n.     atom                  positions (alat units)
         1        Mg     tau(   1) = (   0.0000000   0.0000000   0.0000000  )
         2        O      tau(   2) = (  -0.5000000   0.5000000   0.5000000  )

   Crystallographic axes

     site n.     atom                  positions (cryst. coord.)
         1        Mg     tau(   1) = (  0.0000000  0.0000000  0.0000000  )
         2        O      tau(   2) = (  0.5000000  0.5000000  0.5000000  )

     number of k points=   512
                       cart. coord. in units 2pi/alat
        k(    1) = (   0.0000000   0.0000000   0.0000000), wk =   0.0039062
        k(    2) = (  -0.1250000   0.1250000  -0.1250000), wk =   0.0039062
        k(    3) = (  -0.2500000   0.2500000  -0.2500000), wk =   0.0039062
        k(    4) = (  -0.3750000   0.3750000  -0.3750000), wk =   0.0039062
        k(    5) = (   0.5000000  -0.5000000   0.5000000), wk =   0.0039062
        k(    6) = (   0.3750000  -0.3750000   0.3750000), wk =   0.0039062
        k(    7) = (   0.2500000  -0.2500000   0.2500000), wk =   0.0039062
        k(    8) = (   0.1250000  -0.1250000   0.1250000), wk =   0.0039062
        k(    9) = (   0.1250000   0.1250000   0.1250000), wk =   0.0039062
        k(   10) = (   0.0000000   0.2500000   0.0000000), wk =   0.0039062
        k(   11) = (  -0.1250000   0.3750000  -0.1250000), wk =   0.0039062
        k(   12) = (  -0.2500000   0.5000000  -0.2500000), wk =   0.0039062
        k(   13) = (   0.6250000  -0.3750000   0.6250000), wk =   0.0039062
        k(   14) = (   0.5000000  -0.2500000   0.5000000), wk =   0.0039062
        k(   15) = (   0.3750000  -0.1250000   0.3750000), wk =   0.0039062
        k(   16) = (   0.2500000   0.0000000   0.2500000), wk =   0.0039062
        k(   17) = (   0.2500000   0.2500000   0.2500000), wk =   0.0039062
        k(   18) = (   0.1250000   0.3750000   0.1250000), wk =   0.0039062
        k(   19) = (   0.0000000   0.5000000   0.0000000), wk =   0.0039062
        k(   20) = (  -0.1250000   0.6250000  -0.1250000), wk =   0.0039062
        k(   21) = (   0.7500000  -0.2500000   0.7500000), wk =   0.0039062
        k(   22) = (   0.6250000  -0.1250000   0.6250000), wk =   0.0039062
        k(   23) = (   0.5000000   0.0000000   0.5000000), wk =   0.0039062
        k(   24) = (   0.3750000   0.1250000   0.3750000), wk =   0.0039062
        k(   25) = (   0.3750000   0.3750000   0.3750000), wk =   0.0039062
        k(   26) = (   0.2500000   0.5000000   0.2500000), wk =   0.0039062
        k(   27) = (   0.1250000   0.6250000   0.1250000), wk =   0.0039062
        k(   28) = (   0.0000000   0.7500000   0.0000000), wk =   0.0039062
        k(   29) = (   0.8750000  -0.1250000   0.8750000), wk =   0.0039062
        k(   30) = (   0.7500000   0.0000000   0.7500000), wk =   0.0039062
        k(   31) = (   0.6250000   0.1250000   0.6250000), wk =   0.0039062
        k(   32) = (   0.5000000   0.2500000   0.5000000), wk =   0.0039062
        k(   33) = (  -0.5000000  -0.5000000  -0.5000000), wk =   0.0039062
        k(   34) = (  -0.6250000  -0.3750000  -0.6250000), wk =   0.0039062
        k(   35) = (  -0.7500000  -0.2500000  -0.7500000), wk =   0.0039062
        k(   36) = (  -0.8750000  -0.1250000  -0.8750000), wk =   0.0039062
        k(   37) = (   0.0000000  -1.0000000   0.0000000), wk =   0.0039062
        k(   38) = (  -0.1250000  -0.8750000  -0.1250000), wk =   0.0039062
        k(   39) = (  -0.2500000  -0.7500000  -0.2500000), wk =   0.0039062
        k(   40) = (  -0.3750000  -0.6250000  -0.3750000), wk =   0.0039062
        k(   41) = (  -0.3750000  -0.3750000  -0.3750000), wk =   0.0039062
        k(   42) = (  -0.5000000  -0.2500000  -0.5000000), wk =   0.0039062
        k(   43) = (  -0.6250000  -0.1250000  -0.6250000), wk =   0.0039062
        k(   44) = (  -0.7500000   0.0000000  -0.7500000), wk =   0.0039062
        k(   45) = (   0.1250000  -0.8750000   0.1250000), wk =   0.0039062
        k(   46) = (   0.0000000  -0.7500000   0.0000000), wk =   0.0039062
        k(   47) = (  -0.1250000  -0.6250000  -0.1250000), wk =   0.0039062
        k(   48) = (  -0.2500000  -0.5000000  -0.2500000), wk =   0.0039062
        k(   49) = (  -0.2500000  -0.2500000  -0.2500000), wk =   0.0039062
        k(   50) = (  -0.3750000  -0.1250000  -0.3750000), wk =   0.0039062
        k(   51) = (  -0.5000000   0.0000000  -0.5000000), wk =   0.0039062
        k(   52) = (  -0.6250000   0.1250000  -0.6250000), wk =   0.0039062
        k(   53) = (   0.2500000  -0.7500000   0.2500000), wk =   0.0039062
        k(   54) = (   0.1250000  -0.6250000   0.1250000), wk =   0.0039062
        k(   55) = (   0.0000000  -0.5000000   0.0000000), wk =   0.0039062
        k(   56) = (  -0.1250000  -0.3750000  -0.1250000), wk =   0.0039062
        k(   57) = (  -0.1250000  -0.1250000  -0.1250000), wk =   0.0039062
        k(   58) = (  -0.2500000   0.0000000  -0.2500000), wk =   0.0039062
        k(   59) = (  -0.3750000   0.1250000  -0.3750000), wk =   0.0039062
        k(   60) = (  -0.5000000   0.2500000  -0.5000000), wk =   0.0039062
        k(   61) = (   0.3750000  -0.6250000   0.3750000), wk =   0.0039062
        k(   62) = (   0.2500000  -0.5000000   0.2500000), wk =   0.0039062
        k(   63) = (   0.1250000  -0.3750000   0.1250000), wk =   0.0039062
        k(   64) = (   0.0000000  -0.2500000   0.0000000), wk =   0.0039062
        k(   65) = (  -0.1250000  -0.1250000   0.1250000), wk =   0.0039062
        k(   66) = (  -0.2500000   0.0000000   0.0000000), wk =   0.0039062
        k(   67) = (  -0.3750000   0.1250000  -0.1250000), wk =   0.0039062
        k(   68) = (  -0.5000000   0.2500000  -0.2500000), wk =   0.0039062
        k(   69) = (   0.3750000  -0.6250000   0.6250000), wk =   0.0039062
        k(   70) = (   0.2500000  -0.5000000   0.5000000), wk =   0.0039062
        k(   71) = (   0.1250000  -0.3750000   0.3750000), wk =   0.0039062
        k(   72) = (   0.0000000  -0.2500000   0.2500000), wk =   0.0039062
        k(   73) = (   0.0000000   0.0000000   0.2500000), wk =   0.0039062
        k(   74) = (  -0.1250000   0.1250000   0.1250000), wk =   0.0039062
        k(   75) = (  -0.2500000   0.2500000   0.0000000), wk =   0.0039062
        k(   76) = (  -0.3750000   0.3750000  -0.1250000), wk =   0.0039062
        k(   77) = (   0.5000000  -0.5000000   0.7500000), wk =   0.0039062
        k(   78) = (   0.3750000  -0.3750000   0.6250000), wk =   0.0039062
        k(   79) = (   0.2500000  -0.2500000   0.5000000), wk =   0.0039062
        k(   80) = (   0.1250000  -0.1250000   0.3750000), wk =   0.0039062
        k(   81) = (   0.1250000   0.1250000   0.3750000), wk =   0.0039062
        k(   82) = (   0.0000000   0.2500000   0.2500000), wk =   0.0039062
        k(   83) = (  -0.1250000   0.3750000   0.1250000), wk =   0.0039062
        k(   84) = (  -0.2500000   0.5000000   0.0000000), wk =   0.0039062
        k(   85) = (   0.6250000  -0.3750000   0.8750000), wk =   0.0039062
        k(   86) = (   0.5000000  -0.2500000   0.7500000), wk =   0.0039062
        k(   87) = (   0.3750000  -0.1250000   0.6250000), wk =   0.0039062
        k(   88) = (   0.2500000   0.0000000   0.5000000), wk =   0.0039062
        k(   89) = (   0.2500000   0.2500000   0.5000000), wk =   0.0039062
        k(   90) = (   0.1250000   0.3750000   0.3750000), wk =   0.0039062
        k(   91) = (   0.0000000   0.5000000   0.2500000), wk =   0.0039062
        k(   92) = (  -0.1250000   0.6250000   0.1250000), wk =   0.0039062
        k(   93) = (   0.7500000  -0.2500000   1.0000000), wk =   0.0039062
        k(   94) = (   0.6250000  -0.1250000   0.8750000), wk =   0.0039062
        k(   95) = (   0.5000000   0.0000000   0.7500000), wk =   0.0039062
        k(   96) = (   0.3750000   0.1250000   0.6250000), wk =   0.0039062
        k(   97) = (  -0.6250000  -0.6250000  -0.3750000), wk =   0.0039062
        k(   98) = (  -0.7500000  -0.5000000  -0.5000000), wk =   0.0039062
        k(   99) = (  -0.8750000  -0.3750000  -0.6250000), wk =   0.0039062
        k(  100) = (  -1.0000000  -0.2500000  -0.7500000), wk =   0.0039062
        k(  101) = (  -0.1250000  -1.1250000   0.1250000), wk =   0.0039062
        k(  102) = (  -0.2500000  -1.0000000   0.0000000), wk =   0.0039062
        k(  103) = (  -0.3750000  -0.8750000  -0.1250000), wk =   0.0039062
        k(  104) = (  -0.5000000  -0.7500000  -0.2500000), wk =   0.0039062
        k(  105) = (  -0.5000000  -0.5000000  -0.2500000), wk =   0.0039062
        k(  106) = (  -0.6250000  -0.3750000  -0.3750000), wk =   0.0039062
        k(  107) = (  -0.7500000  -0.2500000  -0.5000000), wk =   0.0039062
        k(  108) = (  -0.8750000  -0.1250000  -0.6250000), wk =   0.0039062
        k(  109) = (   0.0000000  -1.0000000   0.2500000), wk =   0.0039062
        k(  110) = (  -0.1250000  -0.8750000   0.1250000), wk =   0.0039062
        k(  111) = (  -0.2500000  -0.7500000   0.0000000), wk =   0.0039062
        k(  112) = (  -0.3750000  -0.6250000  -0.1250000), wk =   0.0039062
        k(  113) = (  -0.3750000  -0.3750000  -0.1250000), wk =   0.0039062
        k(  114) = (  -0.5000000  -0.2500000  -0.2500000), wk =   0.0039062
        k(  115) = (  -0.6250000  -0.1250000  -0.3750000), wk =   0.0039062
        k(  116) = (  -0.7500000   0.0000000  -0.5000000), wk =   0.0039062
        k(  117) = (   0.1250000  -0.8750000   0.3750000), wk =   0.0039062
        k(  118) = (   0.0000000  -0.7500000   0.2500000), wk =   0.0039062
        k(  119) = (  -0.1250000  -0.6250000   0.1250000), wk =   0.0039062
        k(  120) = (  -0.2500000  -0.5000000   0.0000000), wk =   0.0039062
        k(  121) = (  -0.2500000  -0.2500000   0.0000000), wk =   0.0039062
        k(  122) = (  -0.3750000  -0.1250000  -0.1250000), wk =   0.0039062
        k(  123) = (  -0.5000000   0.0000000  -0.2500000), wk =   0.0039062
        k(  124) = (  -0.6250000   0.1250000  -0.3750000), wk =   0.0039062
        k(  125) = (   0.2500000  -0.7500000   0.5000000), wk =   0.0039062
        k(  126) = (   0.1250000  -0.6250000   0.3750000), wk =   0.0039062
        k(  127) = (   0.0000000  -0.5000000   0.2500000), wk =   0.0039062
        k(  128) = (  -0.1250000  -0.3750000   0.1250000), wk =   0.0039062
        k(  129) = (  -0.2500000  -0.2500000   0.2500000), wk =   0.0039062
        k(  130) = (  -0.3750000  -0.1250000   0.1250000), wk =   0.0039062
        k(  131) = (  -0.5000000   0.0000000   0.0000000), wk =   0.0039062
        k(  132) = (  -0.6250000   0.1250000  -0.1250000), wk =   0.0039062
        k(  133) = (   0.2500000  -0.7500000   0.7500000), wk =   0.0039062
        k(  134) = (   0.1250000  -0.6250000   0.6250000), wk =   0.0039062
        k(  135) = (   0.0000000  -0.5000000   0.5000000), wk =   0.0039062
        k(  136) = (  -0.1250000  -0.3750000   0.3750000), wk =   0.0039062
        k(  137) = (  -0.1250000  -0.1250000   0.3750000), wk =   0.0039062
        k(  138) = (  -0.2500000   0.0000000   0.2500000), wk =   0.0039062
        k(  139) = (  -0.3750000   0.1250000   0.1250000), wk =   0.0039062
        k(  140) = (  -0.5000000   0.2500000   0.0000000), wk =   0.0039062
        k(  141) = (   0.3750000  -0.6250000   0.8750000), wk =   0.0039062
        k(  142) = (   0.2500000  -0.5000000   0.7500000), wk =   0.0039062
        k(  143) = (   0.1250000  -0.3750000   0.6250000), wk =   0.0039062
        k(  144) = (   0.0000000  -0.2500000   0.5000000), wk =   0.0039062
        k(  145) = (   0.0000000   0.0000000   0.5000000), wk =   0.0039062
        k(  146) = (  -0.1250000   0.1250000   0.3750000), wk =   0.0039062
        k(  147) = (  -0.2500000   0.2500000   0.2500000), wk =   0.0039062
        k(  148) = (  -0.3750000   0.3750000   0.1250000), wk =   0.0039062
        k(  149) = (   0.5000000  -0.5000000   1.0000000), wk =   0.0039062
        k(  150) = (   0.3750000  -0.3750000   0.8750000), wk =   0.0039062
        k(  151) = (   0.2500000  -0.2500000   0.7500000), wk =   0.0039062
        k(  152) = (   0.1250000  -0.1250000   0.6250000), wk =   0.0039062
        k(  153) = (   0.1250000   0.1250000   0.6250000), wk =   0.0039062
        k(  154) = (   0.0000000   0.2500000   0.5000000), wk =   0.0039062
        k(  155) = (  -0.1250000   0.3750000   0.3750000), wk =   0.0039062
        k(  156) = (  -0.2500000   0.5000000   0.2500000), wk =   0.0039062
        k(  157) = (   0.6250000  -0.3750000   1.1250000), wk =   0.0039062
        k(  158) = (   0.5000000  -0.2500000   1.0000000), wk =   0.0039062
        k(  159) = (   0.3750000  -0.1250000   0.8750000), wk =   0.0039062
        k(  160) = (   0.2500000   0.0000000   0.7500000), wk =   0.0039062
        k(  161) = (  -0.7500000  -0.7500000  -0.2500000), wk =   0.0039062
        k(  162) = (  -0.8750000  -0.6250000  -0.3750000), wk =   0.0039062
        k(  163) = (  -1.0000000  -0.5000000  -0.5000000), wk =   0.0039062
        k(  164) = (  -1.1250000  -0.3750000  -0.6250000), wk =   0.0039062
        k(  165) = (  -0.2500000  -1.2500000   0.2500000), wk =   0.0039062
        k(  166) = (  -0.3750000  -1.1250000   0.1250000), wk =   0.0039062
        k(  167) = (  -0.5000000  -1.0000000   0.0000000), wk =   0.0039062
        k(  168) = (  -0.6250000  -0.8750000  -0.1250000), wk =   0.0039062
        k(  169) = (  -0.6250000  -0.6250000  -0.1250000), wk =   0.0039062
        k(  170) = (  -0.7500000  -0.5000000  -0.2500000), wk =   0.0039062
        k(  171) = (  -0.8750000  -0.3750000  -0.3750000), wk =   0.0039062
        k(  172) = (  -1.0000000  -0.2500000  -0.5000000), wk =   0.0039062
        k(  173) = (  -0.1250000  -1.1250000   0.3750000), wk =   0.0039062
        k(  174) = (  -0.2500000  -1.0000000   0.2500000), wk =   0.0039062
        k(  175) = (  -0.3750000  -0.8750000   0.1250000), wk =   0.0039062
        k(  176) = (  -0.5000000  -0.7500000   0.0000000), wk =   0.0039062
        k(  177) = (  -0.5000000  -0.5000000   0.0000000), wk =   0.0039062
        k(  178) = (  -0.6250000  -0.3750000  -0.1250000), wk =   0.0039062
        k(  179) = (  -0.7500000  -0.2500000  -0.2500000), wk =   0.0039062
        k(  180) = (  -0.8750000  -0.1250000  -0.3750000), wk =   0.0039062
        k(  181) = (   0.0000000  -1.0000000   0.5000000), wk =   0.0039062
        k(  182) = (  -0.1250000  -0.8750000   0.3750000), wk =   0.0039062
        k(  183) = (  -0.2500000  -0.7500000   0.2500000), wk =   0.0039062
        k(  184) = (  -0.3750000  -0.6250000   0.1250000), wk =   0.0039062
        k(  185) = (  -0.3750000  -0.3750000   0.1250000), wk =   0.0039062
        k(  186) = (  -0.5000000  -0.2500000   0.0000000), wk =   0.0039062
        k(  187) = (  -0.6250000  -0.1250000  -0.1250000), wk =   0.0039062
        k(  188) = (  -0.7500000   0.0000000  -0.2500000), wk =   0.0039062
        k(  189) = (   0.1250000  -0.8750000   0.6250000), wk =   0.0039062
        k(  190) = (   0.0000000  -0.7500000   0.5000000), wk =   0.0039062
        k(  191) = (  -0.1250000  -0.6250000   0.3750000), wk =   0.0039062
        k(  192) = (  -0.2500000  -0.5000000   0.2500000), wk =   0.0039062
        k(  193) = (  -0.3750000  -0.3750000   0.3750000), wk =   0.0039062
        k(  194) = (  -0.5000000  -0.2500000   0.2500000), wk =   0.0039062
        k(  195) = (  -0.6250000  -0.1250000   0.1250000), wk =   0.0039062
        k(  196) = (  -0.7500000   0.0000000   0.0000000), wk =   0.0039062
        k(  197) = (   0.1250000  -0.8750000   0.8750000), wk =   0.0039062
        k(  198) = (   0.0000000  -0.7500000   0.7500000), wk =   0.0039062
        k(  199) = (  -0.1250000  -0.6250000   0.6250000), wk =   0.0039062
        k(  200) = (  -0.2500000  -0.5000000   0.5000000), wk =   0.0039062
        k(  201) = (  -0.2500000  -0.2500000   0.5000000), wk =   0.0039062
        k(  202) = (  -0.3750000  -0.1250000   0.3750000), wk =   0.0039062
        k(  203) = (  -0.5000000   0.0000000   0.2500000), wk =   0.0039062
        k(  204) = (  -0.6250000   0.1250000   0.1250000), wk =   0.0039062
        k(  205) = (   0.2500000  -0.7500000   1.0000000), wk =   0.0039062
        k(  206) = (   0.1250000  -0.6250000   0.8750000), wk =   0.0039062
        k(  207) = (   0.0000000  -0.5000000   0.7500000), wk =   0.0039062
        k(  208) = (  -0.1250000  -0.3750000   0.6250000), wk =   0.0039062
        k(  209) = (  -0.1250000  -0.1250000   0.6250000), wk =   0.0039062
        k(  210) = (  -0.2500000   0.0000000   0.5000000), wk =   0.0039062
        k(  211) = (  -0.3750000   0.1250000   0.3750000), wk =   0.0039062
        k(  212) = (  -0.5000000   0.2500000   0.2500000), wk =   0.0039062
        k(  213) = (   0.3750000  -0.6250000   1.1250000), wk =   0.0039062
        k(  214) = (   0.2500000  -0.5000000   1.0000000), wk =   0.0039062
        k(  215) = (   0.1250000  -0.3750000   0.8750000), wk =   0.0039062
        k(  216) = (   0.0000000  -0.2500000   0.7500000), wk =   0.0039062
        k(  217) = (   0.0000000   0.0000000   0.7500000), wk =   0.0039062
        k(  218) = (  -0.1250000   0.1250000   0.6250000), wk =   0.0039062
        k(  219) = (  -0.2500000   0.2500000   0.5000000), wk =   0.0039062
        k(  220) = (  -0.3750000   0.3750000   0.3750000), wk =   0.0039062
        k(  221) = (   0.5000000  -0.5000000   1.2500000), wk =   0.0039062
        k(  222) = (   0.3750000  -0.3750000   1.1250000), wk =   0.0039062
        k(  223) = (   0.2500000  -0.2500000   1.0000000), wk =   0.0039062
        k(  224) = (   0.1250000  -0.1250000   0.8750000), wk =   0.0039062
        k(  225) = (  -0.8750000  -0.8750000  -0.1250000), wk =   0.0039062
        k(  226) = (  -1.0000000  -0.7500000  -0.2500000), wk =   0.0039062
        k(  227) = (  -1.1250000  -0.6250000  -0.3750000), wk =   0.0039062
        k(  228) = (  -1.2500000  -0.5000000  -0.5000000), wk =   0.0039062
        k(  229) = (  -0.3750000  -1.3750000   0.3750000), wk =   0.0039062
        k(  230) = (  -0.5000000  -1.2500000   0.2500000), wk =   0.0039062
        k(  231) = (  -0.6250000  -1.1250000   0.1250000), wk =   0.0039062
        k(  232) = (  -0.7500000  -1.0000000   0.0000000), wk =   0.0039062
        k(  233) = (  -0.7500000  -0.7500000   0.0000000), wk =   0.0039062
        k(  234) = (  -0.8750000  -0.6250000  -0.1250000), wk =   0.0039062
        k(  235) = (  -1.0000000  -0.5000000  -0.2500000), wk =   0.0039062
        k(  236) = (  -1.1250000  -0.3750000  -0.3750000), wk =   0.0039062
        k(  237) = (  -0.2500000  -1.2500000   0.5000000), wk =   0.0039062
        k(  238) = (  -0.3750000  -1.1250000   0.3750000), wk =   0.0039062
        k(  239) = (  -0.5000000  -1.0000000   0.2500000), wk =   0.0039062
        k(  240) = (  -0.6250000  -0.8750000   0.1250000), wk =   0.0039062
        k(  241) = (  -0.6250000  -0.6250000   0.1250000), wk =   0.0039062
        k(  242) = (  -0.7500000  -0.5000000   0.0000000), wk =   0.0039062
        k(  243) = (  -0.8750000  -0.3750000  -0.1250000), wk =   0.0039062
        k(  244) = (  -1.0000000  -0.2500000  -0.2500000), wk =   0.0039062
        k(  245) = (  -0.1250000  -1.1250000   0.6250000), wk =   0.0039062
        k(  246) = (  -0.2500000  -1.0000000   0.5000000), wk =   0.0039062
        k(  247) = (  -0.3750000  -0.8750000   0.3750000), wk =   0.0039062
        k(  248) = (  -0.5000000  -0.7500000   0.2500000), wk =   0.0039062
        k(  249) = (  -0.5000000  -0.5000000   0.2500000), wk =   0.0039062
        k(  250) = (  -0.6250000  -0.3750000   0.1250000), wk =   0.0039062
        k(  251) = (  -0.7500000  -0.2500000   0.0000000), wk =   0.0039062
        k(  252) = (  -0.8750000  -0.1250000  -0.1250000), wk =   0.0039062
        k(  253) = (   0.0000000  -1.0000000   0.7500000), wk =   0.0039062
        k(  254) = (  -0.1250000  -0.8750000   0.6250000), wk =   0.0039062
        k(  255) = (  -0.2500000  -0.7500000   0.5000000), wk =   0.0039062
        k(  256) = (  -0.3750000  -0.6250000   0.3750000), wk =   0.0039062
        k(  257) = (   0.5000000   0.5000000  -0.5000000), wk =   0.0039062
        k(  258) = (   0.3750000   0.6250000  -0.6250000), wk =   0.0039062
        k(  259) = (   0.2500000   0.7500000  -0.7500000), wk =   0.0039062
        k(  260) = (   0.1250000   0.8750000  -0.8750000), wk =   0.0039062
        k(  261) = (   1.0000000   0.0000000   0.0000000), wk =   0.0039062
        k(  262) = (   0.8750000   0.1250000  -0.1250000), wk =   0.0039062
        k(  263) = (   0.7500000   0.2500000  -0.2500000), wk =   0.0039062
        k(  264) = (   0.6250000   0.3750000  -0.3750000), wk =   0.0039062
        k(  265) = (   0.6250000   0.6250000  -0.3750000), wk =   0.0039062
        k(  266) = (   0.5000000   0.7500000  -0.5000000), wk =   0.0039062
        k(  267) = (   0.3750000   0.8750000  -0.6250000), wk =   0.0039062
        k(  268) = (   0.2500000   1.0000000  -0.7500000), wk =   0.0039062
        k(  269) = (   1.1250000   0.1250000   0.1250000), wk =   0.0039062
        k(  270) = (   1.0000000   0.2500000   0.0000000), wk =   0.0039062
        k(  271) = (   0.8750000   0.3750000  -0.1250000), wk =   0.0039062
        k(  272) = (   0.7500000   0.5000000  -0.2500000), wk =   0.0039062
        k(  273) = (   0.7500000   0.7500000  -0.2500000), wk =   0.0039062
        k(  274) = (   0.6250000   0.8750000  -0.3750000), wk =   0.0039062
        k(  275) = (   0.5000000   1.0000000  -0.5000000), wk =   0.0039062
        k(  276) = (   0.3750000   1.1250000  -0.6250000), wk =   0.0039062
        k(  277) = (   1.2500000   0.2500000   0.2500000), wk =   0.0039062
        k(  278) = (   1.1250000   0.3750000   0.1250000), wk =   0.0039062
        k(  279) = (   1.0000000   0.5000000   0.0000000), wk =   0.0039062
        k(  280) = (   0.8750000   0.6250000  -0.1250000), wk =   0.0039062
        k(  281) = (   0.8750000   0.8750000  -0.1250000), wk =   0.0039062
        k(  282) = (   0.7500000   1.0000000  -0.2500000), wk =   0.0039062
        k(  283) = (   0.6250000   1.1250000  -0.3750000), wk =   0.0039062
        k(  284) = (   0.5000000   1.2500000  -0.5000000), wk =   0.0039062
        k(  285) = (   1.3750000   0.3750000   0.3750000), wk =   0.0039062
        k(  286) = (   1.2500000   0.5000000   0.2500000), wk =   0.0039062
        k(  287) = (   1.1250000   0.6250000   0.1250000), wk =   0.0039062
        k(  288) = (   1.0000000   0.7500000   0.0000000), wk =   0.0039062
        k(  289) = (   0.0000000   0.0000000  -1.0000000), wk =   0.0039062
        k(  290) = (  -0.1250000   0.1250000  -1.1250000), wk =   0.0039062
        k(  291) = (  -0.2500000   0.2500000  -1.2500000), wk =   0.0039062
        k(  292) = (  -0.3750000   0.3750000  -1.3750000), wk =   0.0039062
        k(  293) = (   0.5000000  -0.5000000  -0.5000000), wk =   0.0039062
        k(  294) = (   0.3750000  -0.3750000  -0.6250000), wk =   0.0039062
        k(  295) = (   0.2500000  -0.2500000  -0.7500000), wk =   0.0039062
        k(  296) = (   0.1250000  -0.1250000  -0.8750000), wk =   0.0039062
        k(  297) = (   0.1250000   0.1250000  -0.8750000), wk =   0.0039062
        k(  298) = (   0.0000000   0.2500000  -1.0000000), wk =   0.0039062
        k(  299) = (  -0.1250000   0.3750000  -1.1250000), wk =   0.0039062
        k(  300) = (  -0.2500000   0.5000000  -1.2500000), wk =   0.0039062
        k(  301) = (   0.6250000  -0.3750000  -0.3750000), wk =   0.0039062
        k(  302) = (   0.5000000  -0.2500000  -0.5000000), wk =   0.0039062
        k(  303) = (   0.3750000  -0.1250000  -0.6250000), wk =   0.0039062
        k(  304) = (   0.2500000   0.0000000  -0.7500000), wk =   0.0039062
        k(  305) = (   0.2500000   0.2500000  -0.7500000), wk =   0.0039062
        k(  306) = (   0.1250000   0.3750000  -0.8750000), wk =   0.0039062
        k(  307) = (   0.0000000   0.5000000  -1.0000000), wk =   0.0039062
        k(  308) = (  -0.1250000   0.6250000  -1.1250000), wk =   0.0039062
        k(  309) = (   0.7500000  -0.2500000  -0.2500000), wk =   0.0039062
        k(  310) = (   0.6250000  -0.1250000  -0.3750000), wk =   0.0039062
        k(  311) = (   0.5000000   0.0000000  -0.5000000), wk =   0.0039062
        k(  312) = (   0.3750000   0.1250000  -0.6250000), wk =   0.0039062
        k(  313) = (   0.3750000   0.3750000  -0.6250000), wk =   0.0039062
        k(  314) = (   0.2500000   0.5000000  -0.7500000), wk =   0.0039062
        k(  315) = (   0.1250000   0.6250000  -0.8750000), wk =   0.0039062
        k(  316) = (   0.0000000   0.7500000  -1.0000000), wk =   0.0039062
        k(  317) = (   0.8750000  -0.1250000  -0.1250000), wk =   0.0039062
        k(  318) = (   0.7500000   0.0000000  -0.2500000), wk =   0.0039062
        k(  319) = (   0.6250000   0.1250000  -0.3750000), wk =   0.0039062
        k(  320) = (   0.5000000   0.2500000  -0.5000000), wk =   0.0039062
        k(  321) = (   0.3750000   0.3750000  -0.3750000), wk =   0.0039062
        k(  322) = (   0.2500000   0.5000000  -0.5000000), wk =   0.0039062
        k(  323) = (   0.1250000   0.6250000  -0.6250000), wk =   0.0039062
        k(  324) = (   0.0000000   0.7500000  -0.7500000), wk =   0.0039062
        k(  325) = (   0.8750000  -0.1250000   0.1250000), wk =   0.0039062
        k(  326) = (   0.7500000   0.0000000   0.0000000), wk =   0.0039062
        k(  327) = (   0.6250000   0.1250000  -0.1250000), wk =   0.0039062
        k(  328) = (   0.5000000   0.2500000  -0.2500000), wk =   0.0039062
        k(  329) = (   0.5000000   0.5000000  -0.2500000), wk =   0.0039062
        k(  330) = (   0.3750000   0.6250000  -0.3750000), wk =   0.0039062
        k(  331) = (   0.2500000   0.7500000  -0.5000000), wk =   0.0039062
        k(  332) = (   0.1250000   0.8750000  -0.6250000), wk =   0.0039062
        k(  333) = (   1.0000000   0.0000000   0.2500000), wk =   0.0039062
        k(  334) = (   0.8750000   0.1250000   0.1250000), wk =   0.0039062
        k(  335) = (   0.7500000   0.2500000   0.0000000), wk =   0.0039062
        k(  336) = (   0.6250000   0.3750000  -0.1250000), wk =   0.0039062
        k(  337) = (   0.6250000   0.6250000  -0.1250000), wk =   0.0039062
        k(  338) = (   0.5000000   0.7500000  -0.2500000), wk =   0.0039062
        k(  339) = (   0.3750000   0.8750000  -0.3750000), wk =   0.0039062
        k(  340) = (   0.2500000   1.0000000  -0.5000000), wk =   0.0039062
        k(  341) = (   1.1250000   0.1250000   0.3750000), wk =   0.0039062
        k(  342) = (   1.0000000   0.2500000   0.2500000), wk =   0.0039062
        k(  343) = (   0.8750000   0.3750000   0.1250000), wk =   0.0039062
        k(  344) = (   0.7500000   0.5000000   0.0000000), wk =   0.0039062
        k(  345) = (   0.7500000   0.7500000   0.0000000), wk =   0.0039062
        k(  346) = (   0.6250000   0.8750000  -0.1250000), wk =   0.0039062
        k(  347) = (   0.5000000   1.0000000  -0.2500000), wk =   0.0039062
        k(  348) = (   0.3750000   1.1250000  -0.3750000), wk =   0.0039062
        k(  349) = (   1.2500000   0.2500000   0.5000000), wk =   0.0039062
        k(  350) = (   1.1250000   0.3750000   0.3750000), wk =   0.0039062
        k(  351) = (   1.0000000   0.5000000   0.2500000), wk =   0.0039062
        k(  352) = (   0.8750000   0.6250000   0.1250000), wk =   0.0039062
        k(  353) = (  -0.1250000  -0.1250000  -0.8750000), wk =   0.0039062
        k(  354) = (  -0.2500000   0.0000000  -1.0000000), wk =   0.0039062
        k(  355) = (  -0.3750000   0.1250000  -1.1250000), wk =   0.0039062
        k(  356) = (  -0.5000000   0.2500000  -1.2500000), wk =   0.0039062
        k(  357) = (   0.3750000  -0.6250000  -0.3750000), wk =   0.0039062
        k(  358) = (   0.2500000  -0.5000000  -0.5000000), wk =   0.0039062
        k(  359) = (   0.1250000  -0.3750000  -0.6250000), wk =   0.0039062
        k(  360) = (   0.0000000  -0.2500000  -0.7500000), wk =   0.0039062
        k(  361) = (   0.0000000   0.0000000  -0.7500000), wk =   0.0039062
        k(  362) = (  -0.1250000   0.1250000  -0.8750000), wk =   0.0039062
        k(  363) = (  -0.2500000   0.2500000  -1.0000000), wk =   0.0039062
        k(  364) = (  -0.3750000   0.3750000  -1.1250000), wk =   0.0039062
        k(  365) = (   0.5000000  -0.5000000  -0.2500000), wk =   0.0039062
        k(  366) = (   0.3750000  -0.3750000  -0.3750000), wk =   0.0039062
        k(  367) = (   0.2500000  -0.2500000  -0.5000000), wk =   0.0039062
        k(  368) = (   0.1250000  -0.1250000  -0.6250000), wk =   0.0039062
        k(  369) = (   0.1250000   0.1250000  -0.6250000), wk =   0.0039062
        k(  370) = (   0.0000000   0.2500000  -0.7500000), wk =   0.0039062
        k(  371) = (  -0.1250000   0.3750000  -0.8750000), wk =   0.0039062
        k(  372) = (  -0.2500000   0.5000000  -1.0000000), wk =   0.0039062
        k(  373) = (   0.6250000  -0.3750000  -0.1250000), wk =   0.0039062
        k(  374) = (   0.5000000  -0.2500000  -0.2500000), wk =   0.0039062
        k(  375) = (   0.3750000  -0.1250000  -0.3750000), wk =   0.0039062
        k(  376) = (   0.2500000   0.0000000  -0.5000000), wk =   0.0039062
        k(  377) = (   0.2500000   0.2500000  -0.5000000), wk =   0.0039062
        k(  378) = (   0.1250000   0.3750000  -0.6250000), wk =   0.0039062
        k(  379) = (   0.0000000   0.5000000  -0.7500000), wk =   0.0039062
        k(  380) = (  -0.1250000   0.6250000  -0.8750000), wk =   0.0039062
        k(  381) = (   0.7500000  -0.2500000   0.0000000), wk =   0.0039062
        k(  382) = (   0.6250000  -0.1250000  -0.1250000), wk =   0.0039062
        k(  383) = (   0.5000000   0.0000000  -0.2500000), wk =   0.0039062
        k(  384) = (   0.3750000   0.1250000  -0.3750000), wk =   0.0039062
        k(  385) = (   0.2500000   0.2500000  -0.2500000), wk =   0.0039062
        k(  386) = (   0.1250000   0.3750000  -0.3750000), wk =   0.0039062
        k(  387) = (   0.0000000   0.5000000  -0.5000000), wk =   0.0039062
        k(  388) = (  -0.1250000   0.6250000  -0.6250000), wk =   0.0039062
        k(  389) = (   0.7500000  -0.2500000   0.2500000), wk =   0.0039062
        k(  390) = (   0.6250000  -0.1250000   0.1250000), wk =   0.0039062
        k(  391) = (   0.5000000   0.0000000   0.0000000), wk =   0.0039062
        k(  392) = (   0.3750000   0.1250000  -0.1250000), wk =   0.0039062
        k(  393) = (   0.3750000   0.3750000  -0.1250000), wk =   0.0039062
        k(  394) = (   0.2500000   0.5000000  -0.2500000), wk =   0.0039062
        k(  395) = (   0.1250000   0.6250000  -0.3750000), wk =   0.0039062
        k(  396) = (   0.0000000   0.7500000  -0.5000000), wk =   0.0039062
        k(  397) = (   0.8750000  -0.1250000   0.3750000), wk =   0.0039062
        k(  398) = (   0.7500000   0.0000000   0.2500000), wk =   0.0039062
        k(  399) = (   0.6250000   0.1250000   0.1250000), wk =   0.0039062
        k(  400) = (   0.5000000   0.2500000   0.0000000), wk =   0.0039062
        k(  401) = (   0.5000000   0.5000000   0.0000000), wk =   0.0039062
        k(  402) = (   0.3750000   0.6250000  -0.1250000), wk =   0.0039062
        k(  403) = (   0.2500000   0.7500000  -0.2500000), wk =   0.0039062
        k(  404) = (   0.1250000   0.8750000  -0.3750000), wk =   0.0039062
        k(  405) = (   1.0000000   0.0000000   0.5000000), wk =   0.0039062
        k(  406) = (   0.8750000   0.1250000   0.3750000), wk =   0.0039062
        k(  407) = (   0.7500000   0.2500000   0.2500000), wk =   0.0039062
        k(  408) = (   0.6250000   0.3750000   0.1250000), wk =   0.0039062
        k(  409) = (   0.6250000   0.6250000   0.1250000), wk =   0.0039062
        k(  410) = (   0.5000000   0.7500000   0.0000000), wk =   0.0039062
        k(  411) = (   0.3750000   0.8750000  -0.1250000), wk =   0.0039062
        k(  412) = (   0.2500000   1.0000000  -0.2500000), wk =   0.0039062
        k(  413) = (   1.1250000   0.1250000   0.6250000), wk =   0.0039062
        k(  414) = (   1.0000000   0.2500000   0.5000000), wk =   0.0039062
        k(  415) = (   0.8750000   0.3750000   0.3750000), wk =   0.0039062
        k(  416) = (   0.7500000   0.5000000   0.2500000), wk =   0.0039062
        k(  417) = (  -0.2500000  -0.2500000  -0.7500000), wk =   0.0039062
        k(  418) = (  -0.3750000  -0.1250000  -0.8750000), wk =   0.0039062
        k(  419) = (  -0.5000000   0.0000000  -1.0000000), wk =   0.0039062
        k(  420) = (  -0.6250000   0.1250000  -1.1250000), wk =   0.0039062
        k(  421) = (   0.2500000  -0.7500000  -0.2500000), wk =   0.0039062
        k(  422) = (   0.1250000  -0.6250000  -0.3750000), wk =   0.0039062
        k(  423) = (   0.0000000  -0.5000000  -0.5000000), wk =   0.0039062
        k(  424) = (  -0.1250000  -0.3750000  -0.6250000), wk =   0.0039062
        k(  425) = (  -0.1250000  -0.1250000  -0.6250000), wk =   0.0039062
        k(  426) = (  -0.2500000   0.0000000  -0.7500000), wk =   0.0039062
        k(  427) = (  -0.3750000   0.1250000  -0.8750000), wk =   0.0039062
        k(  428) = (  -0.5000000   0.2500000  -1.0000000), wk =   0.0039062
        k(  429) = (   0.3750000  -0.6250000  -0.1250000), wk =   0.0039062
        k(  430) = (   0.2500000  -0.5000000  -0.2500000), wk =   0.0039062
        k(  431) = (   0.1250000  -0.3750000  -0.3750000), wk =   0.0039062
        k(  432) = (   0.0000000  -0.2500000  -0.5000000), wk =   0.0039062
        k(  433) = (   0.0000000   0.0000000  -0.5000000), wk =   0.0039062
        k(  434) = (  -0.1250000   0.1250000  -0.6250000), wk =   0.0039062
        k(  435) = (  -0.2500000   0.2500000  -0.7500000), wk =   0.0039062
        k(  436) = (  -0.3750000   0.3750000  -0.8750000), wk =   0.0039062
        k(  437) = (   0.5000000  -0.5000000   0.0000000), wk =   0.0039062
        k(  438) = (   0.3750000  -0.3750000  -0.1250000), wk =   0.0039062
        k(  439) = (   0.2500000  -0.2500000  -0.2500000), wk =   0.0039062
        k(  440) = (   0.1250000  -0.1250000  -0.3750000), wk =   0.0039062
        k(  441) = (   0.1250000   0.1250000  -0.3750000), wk =   0.0039062
        k(  442) = (   0.0000000   0.2500000  -0.5000000), wk =   0.0039062
        k(  443) = (  -0.1250000   0.3750000  -0.6250000), wk =   0.0039062
        k(  444) = (  -0.2500000   0.5000000  -0.7500000), wk =   0.0039062
        k(  445) = (   0.6250000  -0.3750000   0.1250000), wk =   0.0039062
        k(  446) = (   0.5000000  -0.2500000   0.0000000), wk =   0.0039062
        k(  447) = (   0.3750000  -0.1250000  -0.1250000), wk =   0.0039062
        k(  448) = (   0.2500000   0.0000000  -0.2500000), wk =   0.0039062
        k(  449) = (   0.1250000   0.1250000  -0.1250000), wk =   0.0039062
        k(  450) = (   0.0000000   0.2500000  -0.2500000), wk =   0.0039062
        k(  451) = (  -0.1250000   0.3750000  -0.3750000), wk =   0.0039062
        k(  452) = (  -0.2500000   0.5000000  -0.5000000), wk =   0.0039062
        k(  453) = (   0.6250000  -0.3750000   0.3750000), wk =   0.0039062
        k(  454) = (   0.5000000  -0.2500000   0.2500000), wk =   0.0039062
        k(  455) = (   0.3750000  -0.1250000   0.1250000), wk =   0.0039062
        k(  456) = (   0.2500000   0.0000000   0.0000000), wk =   0.0039062
        k(  457) = (   0.2500000   0.2500000   0.0000000), wk =   0.0039062
        k(  458) = (   0.1250000   0.3750000  -0.1250000), wk =   0.0039062
        k(  459) = (   0.0000000   0.5000000  -0.2500000), wk =   0.0039062
        k(  460) = (  -0.1250000   0.6250000  -0.3750000), wk =   0.0039062
        k(  461) = (   0.7500000  -0.2500000   0.5000000), wk =   0.0039062
        k(  462) = (   0.6250000  -0.1250000   0.3750000), wk =   0.0039062
        k(  463) = (   0.5000000   0.0000000   0.2500000), wk =   0.0039062
        k(  464) = (   0.3750000   0.1250000   0.1250000), wk =   0.0039062
        k(  465) = (   0.3750000   0.3750000   0.1250000), wk =   0.0039062
        k(  466) = (   0.2500000   0.5000000   0.0000000), wk =   0.0039062
        k(  467) = (   0.1250000   0.6250000  -0.1250000), wk =   0.0039062
        k(  468) = (   0.0000000   0.7500000  -0.2500000), wk =   0.0039062
        k(  469) = (   0.8750000  -0.1250000   0.6250000), wk =   0.0039062
        k(  470) = (   0.7500000   0.0000000   0.5000000), wk =   0.0039062
        k(  471) = (   0.6250000   0.1250000   0.3750000), wk =   0.0039062
        k(  472) = (   0.5000000   0.2500000   0.2500000), wk =   0.0039062
        k(  473) = (   0.5000000   0.5000000   0.2500000), wk =   0.0039062
        k(  474) = (   0.3750000   0.6250000   0.1250000), wk =   0.0039062
        k(  475) = (   0.2500000   0.7500000   0.0000000), wk =   0.0039062
        k(  476) = (   0.1250000   0.8750000  -0.1250000), wk =   0.0039062
        k(  477) = (   1.0000000   0.0000000   0.7500000), wk =   0.0039062
        k(  478) = (   0.8750000   0.1250000   0.6250000), wk =   0.0039062
        k(  479) = (   0.7500000   0.2500000   0.5000000), wk =   0.0039062
        k(  480) = (   0.6250000   0.3750000   0.3750000), wk =   0.0039062
        k(  481) = (  -0.3750000  -0.3750000  -0.6250000), wk =   0.0039062
        k(  482) = (  -0.5000000  -0.2500000  -0.7500000), wk =   0.0039062
        k(  483) = (  -0.6250000  -0.1250000  -0.8750000), wk =   0.0039062
        k(  484) = (  -0.7500000   0.0000000  -1.0000000), wk =   0.0039062
        k(  485) = (   0.1250000  -0.8750000  -0.1250000), wk =   0.0039062
        k(  486) = (   0.0000000  -0.7500000  -0.2500000), wk =   0.0039062
        k(  487) = (  -0.1250000  -0.6250000  -0.3750000), wk =   0.0039062
        k(  488) = (  -0.2500000  -0.5000000  -0.5000000), wk =   0.0039062
        k(  489) = (  -0.2500000  -0.2500000  -0.5000000), wk =   0.0039062
        k(  490) = (  -0.3750000  -0.1250000  -0.6250000), wk =   0.0039062
        k(  491) = (  -0.5000000   0.0000000  -0.7500000), wk =   0.0039062
        k(  492) = (  -0.6250000   0.1250000  -0.8750000), wk =   0.0039062
        k(  493) = (   0.2500000  -0.7500000   0.0000000), wk =   0.0039062
        k(  494) = (   0.1250000  -0.6250000  -0.1250000), wk =   0.0039062
        k(  495) = (   0.0000000  -0.5000000  -0.2500000), wk =   0.0039062
        k(  496) = (  -0.1250000  -0.3750000  -0.3750000), wk =   0.0039062
        k(  497) = (  -0.1250000  -0.1250000  -0.3750000), wk =   0.0039062
        k(  498) = (  -0.2500000   0.0000000  -0.5000000), wk =   0.0039062
        k(  499) = (  -0.3750000   0.1250000  -0.6250000), wk =   0.0039062
        k(  500) = (  -0.5000000   0.2500000  -0.7500000), wk =   0.0039062
        k(  501) = (   0.3750000  -0.6250000   0.1250000), wk =   0.0039062
        k(  502) = (   0.2500000  -0.5000000   0.0000000), wk =   0.0039062
        k(  503) = (   0.1250000  -0.3750000  -0.1250000), wk =   0.0039062
        k(  504) = (   0.0000000  -0.2500000  -0.2500000), wk =   0.0039062
        k(  505) = (   0.0000000   0.0000000  -0.2500000), wk =   0.0039062
        k(  506) = (  -0.1250000   0.1250000  -0.3750000), wk =   0.0039062
        k(  507) = (  -0.2500000   0.2500000  -0.5000000), wk =   0.0039062
        k(  508) = (  -0.3750000   0.3750000  -0.6250000), wk =   0.0039062
        k(  509) = (   0.5000000  -0.5000000   0.2500000), wk =   0.0039062
        k(  510) = (   0.3750000  -0.3750000   0.1250000), wk =   0.0039062
        k(  511) = (   0.2500000  -0.2500000   0.0000000), wk =   0.0039062
        k(  512) = (   0.1250000  -0.1250000  -0.1250000), wk =   0.0039062

                       cryst. coord.
        k(    1) = (   0.0000000   0.0000000   0.0000000), wk =   0.0039062
        k(    2) = (   0.0000000   0.0000000   0.1250000), wk =   0.0039062
        k(    3) = (   0.0000000   0.0000000   0.2500000), wk =   0.0039062
        k(    4) = (   0.0000000   0.0000000   0.3750000), wk =   0.0039062
        k(    5) = (   0.0000000   0.0000000  -0.5000000), wk =   0.0039062
        k(    6) = (   0.0000000   0.0000000  -0.3750000), wk =   0.0039062
        k(    7) = (   0.0000000   0.0000000  -0.2500000), wk =   0.0039062
        k(    8) = (   0.0000000   0.0000000  -0.1250000), wk =   0.0039062
        k(    9) = (   0.0000000   0.1250000   0.0000000), wk =   0.0039062
        k(   10) = (   0.0000000   0.1250000   0.1250000), wk =   0.0039062
        k(   11) = (   0.0000000   0.1250000   0.2500000), wk =   0.0039062
        k(   12) = (   0.0000000   0.1250000   0.3750000), wk =   0.0039062
        k(   13) = (   0.0000000   0.1250000  -0.5000000), wk =   0.0039062
        k(   14) = (   0.0000000   0.1250000  -0.3750000), wk =   0.0039062
        k(   15) = (   0.0000000   0.1250000  -0.2500000), wk =   0.0039062
        k(   16) = (   0.0000000   0.1250000  -0.1250000), wk =   0.0039062
        k(   17) = (   0.0000000   0.2500000   0.0000000), wk =   0.0039062
        k(   18) = (   0.0000000   0.2500000   0.1250000), wk =   0.0039062
        k(   19) = (   0.0000000   0.2500000   0.2500000), wk =   0.0039062
        k(   20) = (   0.0000000   0.2500000   0.3750000), wk =   0.0039062
        k(   21) = (   0.0000000   0.2500000  -0.5000000), wk =   0.0039062
        k(   22) = (   0.0000000   0.2500000  -0.3750000), wk =   0.0039062
        k(   23) = (   0.0000000   0.2500000  -0.2500000), wk =   0.0039062
        k(   24) = (   0.0000000   0.2500000  -0.1250000), wk =   0.0039062
        k(   25) = (   0.0000000   0.3750000   0.0000000), wk =   0.0039062
        k(   26) = (   0.0000000   0.3750000   0.1250000), wk =   0.0039062
        k(   27) = (   0.0000000   0.3750000   0.2500000), wk =   0.0039062
        k(   28) = (   0.0000000   0.3750000   0.3750000), wk =   0.0039062
        k(   29) = (   0.0000000   0.3750000  -0.5000000), wk =   0.0039062
        k(   30) = (   0.0000000   0.3750000  -0.3750000), wk =   0.0039062
        k(   31) = (   0.0000000   0.3750000  -0.2500000), wk =   0.0039062
        k(   32) = (   0.0000000   0.3750000  -0.1250000), wk =   0.0039062
        k(   33) = (   0.0000000  -0.5000000   0.0000000), wk =   0.0039062
        k(   34) = (   0.0000000  -0.5000000   0.1250000), wk =   0.0039062
        k(   35) = (   0.0000000  -0.5000000   0.2500000), wk =   0.0039062
        k(   36) = (   0.0000000  -0.5000000   0.3750000), wk =   0.0039062
        k(   37) = (   0.0000000  -0.5000000  -0.5000000), wk =   0.0039062
        k(   38) = (   0.0000000  -0.5000000  -0.3750000), wk =   0.0039062
        k(   39) = (   0.0000000  -0.5000000  -0.2500000), wk =   0.0039062
        k(   40) = (   0.0000000  -0.5000000  -0.1250000), wk =   0.0039062
        k(   41) = (   0.0000000  -0.3750000   0.0000000), wk =   0.0039062
        k(   42) = (   0.0000000  -0.3750000   0.1250000), wk =   0.0039062
        k(   43) = (   0.0000000  -0.3750000   0.2500000), wk =   0.0039062
        k(   44) = (   0.0000000  -0.3750000   0.3750000), wk =   0.0039062
        k(   45) = (   0.0000000  -0.3750000  -0.5000000), wk =   0.0039062
        k(   46) = (   0.0000000  -0.3750000  -0.3750000), wk =   0.0039062
        k(   47) = (   0.0000000  -0.3750000  -0.2500000), wk =   0.0039062
        k(   48) = (   0.0000000  -0.3750000  -0.1250000), wk =   0.0039062
        k(   49) = (   0.0000000  -0.2500000   0.0000000), wk =   0.0039062
        k(   50) = (   0.0000000  -0.2500000   0.1250000), wk =   0.0039062
        k(   51) = (   0.0000000  -0.2500000   0.2500000), wk =   0.0039062
        k(   52) = (   0.0000000  -0.2500000   0.3750000), wk =   0.0039062
        k(   53) = (   0.0000000  -0.2500000  -0.5000000), wk =   0.0039062
        k(   54) = (   0.0000000  -0.2500000  -0.3750000), wk =   0.0039062
        k(   55) = (   0.0000000  -0.2500000  -0.2500000), wk =   0.0039062
        k(   56) = (   0.0000000  -0.2500000  -0.1250000), wk =   0.0039062
        k(   57) = (   0.0000000  -0.1250000   0.0000000), wk =   0.0039062
        k(   58) = (   0.0000000  -0.1250000   0.1250000), wk =   0.0039062
        k(   59) = (   0.0000000  -0.1250000   0.2500000), wk =   0.0039062
        k(   60) = (   0.0000000  -0.1250000   0.3750000), wk =   0.0039062
        k(   61) = (   0.0000000  -0.1250000  -0.5000000), wk =   0.0039062
        k(   62) = (   0.0000000  -0.1250000  -0.3750000), wk =   0.0039062
        k(   63) = (   0.0000000  -0.1250000  -0.2500000), wk =   0.0039062
        k(   64) = (   0.0000000  -0.1250000  -0.1250000), wk =   0.0039062
        k(   65) = (   0.1250000   0.0000000   0.0000000), wk =   0.0039062
        k(   66) = (   0.1250000   0.0000000   0.1250000), wk =   0.0039062
        k(   67) = (   0.1250000   0.0000000   0.2500000), wk =   0.0039062
        k(   68) = (   0.1250000   0.0000000   0.3750000), wk =   0.0039062
        k(   69) = (   0.1250000   0.0000000  -0.5000000), wk =   0.0039062
        k(   70) = (   0.1250000   0.0000000  -0.3750000), wk =   0.0039062
        k(   71) = (   0.1250000   0.0000000  -0.2500000), wk =   0.0039062
        k(   72) = (   0.1250000   0.0000000  -0.1250000), wk =   0.0039062
        k(   73) = (   0.1250000   0.1250000   0.0000000), wk =   0.0039062
        k(   74) = (   0.1250000   0.1250000   0.1250000), wk =   0.0039062
        k(   75) = (   0.1250000   0.1250000   0.2500000), wk =   0.0039062
        k(   76) = (   0.1250000   0.1250000   0.3750000), wk =   0.0039062
        k(   77) = (   0.1250000   0.1250000  -0.5000000), wk =   0.0039062
        k(   78) = (   0.1250000   0.1250000  -0.3750000), wk =   0.0039062
        k(   79) = (   0.1250000   0.1250000  -0.2500000), wk =   0.0039062
        k(   80) = (   0.1250000   0.1250000  -0.1250000), wk =   0.0039062
        k(   81) = (   0.1250000   0.2500000   0.0000000), wk =   0.0039062
        k(   82) = (   0.1250000   0.2500000   0.1250000), wk =   0.0039062
        k(   83) = (   0.1250000   0.2500000   0.2500000), wk =   0.0039062
        k(   84) = (   0.1250000   0.2500000   0.3750000), wk =   0.0039062
        k(   85) = (   0.1250000   0.2500000  -0.5000000), wk =   0.0039062
        k(   86) = (   0.1250000   0.2500000  -0.3750000), wk =   0.0039062
        k(   87) = (   0.1250000   0.2500000  -0.2500000), wk =   0.0039062
        k(   88) = (   0.1250000   0.2500000  -0.1250000), wk =   0.0039062
        k(   89) = (   0.1250000   0.3750000   0.0000000), wk =   0.0039062
        k(   90) = (   0.1250000   0.3750000   0.1250000), wk =   0.0039062
        k(   91) = (   0.1250000   0.3750000   0.2500000), wk =   0.0039062
        k(   92) = (   0.1250000   0.3750000   0.3750000), wk =   0.0039062
        k(   93) = (   0.1250000   0.3750000  -0.5000000), wk =   0.0039062
        k(   94) = (   0.1250000   0.3750000  -0.3750000), wk =   0.0039062
        k(   95) = (   0.1250000   0.3750000  -0.2500000), wk =   0.0039062
        k(   96) = (   0.1250000   0.3750000  -0.1250000), wk =   0.0039062
        k(   97) = (   0.1250000  -0.5000000   0.0000000), wk =   0.0039062
        k(   98) = (   0.1250000  -0.5000000   0.1250000), wk =   0.0039062
        k(   99) = (   0.1250000  -0.5000000   0.2500000), wk =   0.0039062
        k(  100) = (   0.1250000  -0.5000000   0.3750000), wk =   0.0039062
        k(  101) = (   0.1250000  -0.5000000  -0.5000000), wk =   0.0039062
        k(  102) = (   0.1250000  -0.5000000  -0.3750000), wk =   0.0039062
        k(  103) = (   0.1250000  -0.5000000  -0.2500000), wk =   0.0039062
        k(  104) = (   0.1250000  -0.5000000  -0.1250000), wk =   0.0039062
        k(  105) = (   0.1250000  -0.3750000   0.0000000), wk =   0.0039062
        k(  106) = (   0.1250000  -0.3750000   0.1250000), wk =   0.0039062
        k(  107) = (   0.1250000  -0.3750000   0.2500000), wk =   0.0039062
        k(  108) = (   0.1250000  -0.3750000   0.3750000), wk =   0.0039062
        k(  109) = (   0.1250000  -0.3750000  -0.5000000), wk =   0.0039062
        k(  110) = (   0.1250000  -0.3750000  -0.3750000), wk =   0.0039062
        k(  111) = (   0.1250000  -0.3750000  -0.2500000), wk =   0.0039062
        k(  112) = (   0.1250000  -0.3750000  -0.1250000), wk =   0.0039062
        k(  113) = (   0.1250000  -0.2500000   0.0000000), wk =   0.0039062
        k(  114) = (   0.1250000  -0.2500000   0.1250000), wk =   0.0039062
        k(  115) = (   0.1250000  -0.2500000   0.2500000), wk =   0.0039062
        k(  116) = (   0.1250000  -0.2500000   0.3750000), wk =   0.0039062
        k(  117) = (   0.1250000  -0.2500000  -0.5000000), wk =   0.0039062
        k(  118) = (   0.1250000  -0.2500000  -0.3750000), wk =   0.0039062
        k(  119) = (   0.1250000  -0.2500000  -0.2500000), wk =   0.0039062
        k(  120) = (   0.1250000  -0.2500000  -0.1250000), wk =   0.0039062
        k(  121) = (   0.1250000  -0.1250000   0.0000000), wk =   0.0039062
        k(  122) = (   0.1250000  -0.1250000   0.1250000), wk =   0.0039062
        k(  123) = (   0.1250000  -0.1250000   0.2500000), wk =   0.0039062
        k(  124) = (   0.1250000  -0.1250000   0.3750000), wk =   0.0039062
        k(  125) = (   0.1250000  -0.1250000  -0.5000000), wk =   0.0039062
        k(  126) = (   0.1250000  -0.1250000  -0.3750000), wk =   0.0039062
        k(  127) = (   0.1250000  -0.1250000  -0.2500000), wk =   0.0039062
        k(  128) = (   0.1250000  -0.1250000  -0.1250000), wk =   0.0039062
        k(  129) = (   0.2500000   0.0000000   0.0000000), wk =   0.0039062
        k(  130) = (   0.2500000   0.0000000   0.1250000), wk =   0.0039062
        k(  131) = (   0.2500000   0.0000000   0.2500000), wk =   0.0039062
        k(  132) = (   0.2500000   0.0000000   0.3750000), wk =   0.0039062
        k(  133) = (   0.2500000   0.0000000  -0.5000000), wk =   0.0039062
        k(  134) = (   0.2500000   0.0000000  -0.3750000), wk =   0.0039062
        k(  135) = (   0.2500000   0.0000000  -0.2500000), wk =   0.0039062
        k(  136) = (   0.2500000   0.0000000  -0.1250000), wk =   0.0039062
        k(  137) = (   0.2500000   0.1250000   0.0000000), wk =   0.0039062
        k(  138) = (   0.2500000   0.1250000   0.1250000), wk =   0.0039062
        k(  139) = (   0.2500000   0.1250000   0.2500000), wk =   0.0039062
        k(  140) = (   0.2500000   0.1250000   0.3750000), wk =   0.0039062
        k(  141) = (   0.2500000   0.1250000  -0.5000000), wk =   0.0039062
        k(  142) = (   0.2500000   0.1250000  -0.3750000), wk =   0.0039062
        k(  143) = (   0.2500000   0.1250000  -0.2500000), wk =   0.0039062
        k(  144) = (   0.2500000   0.1250000  -0.1250000), wk =   0.0039062
        k(  145) = (   0.2500000   0.2500000   0.0000000), wk =   0.0039062
        k(  146) = (   0.2500000   0.2500000   0.1250000), wk =   0.0039062
        k(  147) = (   0.2500000   0.2500000   0.2500000), wk =   0.0039062
        k(  148) = (   0.2500000   0.2500000   0.3750000), wk =   0.0039062
        k(  149) = (   0.2500000   0.2500000  -0.5000000), wk =   0.0039062
        k(  150) = (   0.2500000   0.2500000  -0.3750000), wk =   0.0039062
        k(  151) = (   0.2500000   0.2500000  -0.2500000), wk =   0.0039062
        k(  152) = (   0.2500000   0.2500000  -0.1250000), wk =   0.0039062
        k(  153) = (   0.2500000   0.3750000   0.0000000), wk =   0.0039062
        k(  154) = (   0.2500000   0.3750000   0.1250000), wk =   0.0039062
        k(  155) = (   0.2500000   0.3750000   0.2500000), wk =   0.0039062
        k(  156) = (   0.2500000   0.3750000   0.3750000), wk =   0.0039062
        k(  157) = (   0.2500000   0.3750000  -0.5000000), wk =   0.0039062
        k(  158) = (   0.2500000   0.3750000  -0.3750000), wk =   0.0039062
        k(  159) = (   0.2500000   0.3750000  -0.2500000), wk =   0.0039062
        k(  160) = (   0.2500000   0.3750000  -0.1250000), wk =   0.0039062
        k(  161) = (   0.2500000  -0.5000000   0.0000000), wk =   0.0039062
        k(  162) = (   0.2500000  -0.5000000   0.1250000), wk =   0.0039062
        k(  163) = (   0.2500000  -0.5000000   0.2500000), wk =   0.0039062
        k(  164) = (   0.2500000  -0.5000000   0.3750000), wk =   0.0039062
        k(  165) = (   0.2500000  -0.5000000  -0.5000000), wk =   0.0039062
        k(  166) = (   0.2500000  -0.5000000  -0.3750000), wk =   0.0039062
        k(  167) = (   0.2500000  -0.5000000  -0.2500000), wk =   0.0039062
        k(  168) = (   0.2500000  -0.5000000  -0.1250000), wk =   0.0039062
        k(  169) = (   0.2500000  -0.3750000   0.0000000), wk =   0.0039062
        k(  170) = (   0.2500000  -0.3750000   0.1250000), wk =   0.0039062
        k(  171) = (   0.2500000  -0.3750000   0.2500000), wk =   0.0039062
        k(  172) = (   0.2500000  -0.3750000   0.3750000), wk =   0.0039062
        k(  173) = (   0.2500000  -0.3750000  -0.5000000), wk =   0.0039062
        k(  174) = (   0.2500000  -0.3750000  -0.3750000), wk =   0.0039062
        k(  175) = (   0.2500000  -0.3750000  -0.2500000), wk =   0.0039062
        k(  176) = (   0.2500000  -0.3750000  -0.1250000), wk =   0.0039062
        k(  177) = (   0.2500000  -0.2500000   0.0000000), wk =   0.0039062
        k(  178) = (   0.2500000  -0.2500000   0.1250000), wk =   0.0039062
        k(  179) = (   0.2500000  -0.2500000   0.2500000), wk =   0.0039062
        k(  180) = (   0.2500000  -0.2500000   0.3750000), wk =   0.0039062
        k(  181) = (   0.2500000  -0.2500000  -0.5000000), wk =   0.0039062
        k(  182) = (   0.2500000  -0.2500000  -0.3750000), wk =   0.0039062
        k(  183) = (   0.2500000  -0.2500000  -0.2500000), wk =   0.0039062
        k(  184) = (   0.2500000  -0.2500000  -0.1250000), wk =   0.0039062
        k(  185) = (   0.2500000  -0.1250000   0.0000000), wk =   0.0039062
        k(  186) = (   0.2500000  -0.1250000   0.1250000), wk =   0.0039062
        k(  187) = (   0.2500000  -0.1250000   0.2500000), wk =   0.0039062
        k(  188) = (   0.2500000  -0.1250000   0.3750000), wk =   0.0039062
        k(  189) = (   0.2500000  -0.1250000  -0.5000000), wk =   0.0039062
        k(  190) = (   0.2500000  -0.1250000  -0.3750000), wk =   0.0039062
        k(  191) = (   0.2500000  -0.1250000  -0.2500000), wk =   0.0039062
        k(  192) = (   0.2500000  -0.1250000  -0.1250000), wk =   0.0039062
        k(  193) = (   0.3750000   0.0000000   0.0000000), wk =   0.0039062
        k(  194) = (   0.3750000   0.0000000   0.1250000), wk =   0.0039062
        k(  195) = (   0.3750000   0.0000000   0.2500000), wk =   0.0039062
        k(  196) = (   0.3750000   0.0000000   0.3750000), wk =   0.0039062
        k(  197) = (   0.3750000   0.0000000  -0.5000000), wk =   0.0039062
        k(  198) = (   0.3750000   0.0000000  -0.3750000), wk =   0.0039062
        k(  199) = (   0.3750000   0.0000000  -0.2500000), wk =   0.0039062
        k(  200) = (   0.3750000   0.0000000  -0.1250000), wk =   0.0039062
        k(  201) = (   0.3750000   0.1250000   0.0000000), wk =   0.0039062
        k(  202) = (   0.3750000   0.1250000   0.1250000), wk =   0.0039062
        k(  203) = (   0.3750000   0.1250000   0.2500000), wk =   0.0039062
        k(  204) = (   0.3750000   0.1250000   0.3750000), wk =   0.0039062
        k(  205) = (   0.3750000   0.1250000  -0.5000000), wk =   0.0039062
        k(  206) = (   0.3750000   0.1250000  -0.3750000), wk =   0.0039062
        k(  207) = (   0.3750000   0.1250000  -0.2500000), wk =   0.0039062
        k(  208) = (   0.3750000   0.1250000  -0.1250000), wk =   0.0039062
        k(  209) = (   0.3750000   0.2500000   0.0000000), wk =   0.0039062
        k(  210) = (   0.3750000   0.2500000   0.1250000), wk =   0.0039062
        k(  211) = (   0.3750000   0.2500000   0.2500000), wk =   0.0039062
        k(  212) = (   0.3750000   0.2500000   0.3750000), wk =   0.0039062
        k(  213) = (   0.3750000   0.2500000  -0.5000000), wk =   0.0039062
        k(  214) = (   0.3750000   0.2500000  -0.3750000), wk =   0.0039062
        k(  215) = (   0.3750000   0.2500000  -0.2500000), wk =   0.0039062
        k(  216) = (   0.3750000   0.2500000  -0.1250000), wk =   0.0039062
        k(  217) = (   0.3750000   0.3750000   0.0000000), wk =   0.0039062
        k(  218) = (   0.3750000   0.3750000   0.1250000), wk =   0.0039062
        k(  219) = (   0.3750000   0.3750000   0.2500000), wk =   0.0039062
        k(  220) = (   0.3750000   0.3750000   0.3750000), wk =   0.0039062
        k(  221) = (   0.3750000   0.3750000  -0.5000000), wk =   0.0039062
        k(  222) = (   0.3750000   0.3750000  -0.3750000), wk =   0.0039062
        k(  223) = (   0.3750000   0.3750000  -0.2500000), wk =   0.0039062
        k(  224) = (   0.3750000   0.3750000  -0.1250000), wk =   0.0039062
        k(  225) = (   0.3750000  -0.5000000   0.0000000), wk =   0.0039062
        k(  226) = (   0.3750000  -0.5000000   0.1250000), wk =   0.0039062
        k(  227) = (   0.3750000  -0.5000000   0.2500000), wk =   0.0039062
        k(  228) = (   0.3750000  -0.5000000   0.3750000), wk =   0.0039062
        k(  229) = (   0.3750000  -0.5000000  -0.5000000), wk =   0.0039062
        k(  230) = (   0.3750000  -0.5000000  -0.3750000), wk =   0.0039062
        k(  231) = (   0.3750000  -0.5000000  -0.2500000), wk =   0.0039062
        k(  232) = (   0.3750000  -0.5000000  -0.1250000), wk =   0.0039062
        k(  233) = (   0.3750000  -0.3750000   0.0000000), wk =   0.0039062
        k(  234) = (   0.3750000  -0.3750000   0.1250000), wk =   0.0039062
        k(  235) = (   0.3750000  -0.3750000   0.2500000), wk =   0.0039062
        k(  236) = (   0.3750000  -0.3750000   0.3750000), wk =   0.0039062
        k(  237) = (   0.3750000  -0.3750000  -0.5000000), wk =   0.0039062
        k(  238) = (   0.3750000  -0.3750000  -0.3750000), wk =   0.0039062
        k(  239) = (   0.3750000  -0.3750000  -0.2500000), wk =   0.0039062
        k(  240) = (   0.3750000  -0.3750000  -0.1250000), wk =   0.0039062
        k(  241) = (   0.3750000  -0.2500000   0.0000000), wk =   0.0039062
        k(  242) = (   0.3750000  -0.2500000   0.1250000), wk =   0.0039062
        k(  243) = (   0.3750000  -0.2500000   0.2500000), wk =   0.0039062
        k(  244) = (   0.3750000  -0.2500000   0.3750000), wk =   0.0039062
        k(  245) = (   0.3750000  -0.2500000  -0.5000000), wk =   0.0039062
        k(  246) = (   0.3750000  -0.2500000  -0.3750000), wk =   0.0039062
        k(  247) = (   0.3750000  -0.2500000  -0.2500000), wk =   0.0039062
        k(  248) = (   0.3750000  -0.2500000  -0.1250000), wk =   0.0039062
        k(  249) = (   0.3750000  -0.1250000   0.0000000), wk =   0.0039062
        k(  250) = (   0.3750000  -0.1250000   0.1250000), wk =   0.0039062
        k(  251) = (   0.3750000  -0.1250000   0.2500000), wk =   0.0039062
        k(  252) = (   0.3750000  -0.1250000   0.3750000), wk =   0.0039062
        k(  253) = (   0.3750000  -0.1250000  -0.5000000), wk =   0.0039062
        k(  254) = (   0.3750000  -0.1250000  -0.3750000), wk =   0.0039062
        k(  255) = (   0.3750000  -0.1250000  -0.2500000), wk =   0.0039062
        k(  256) = (   0.3750000  -0.1250000  -0.1250000), wk =   0.0039062
        k(  257) = (  -0.5000000   0.0000000   0.0000000), wk =   0.0039062
        k(  258) = (  -0.5000000   0.0000000   0.1250000), wk =   0.0039062
        k(  259) = (  -0.5000000   0.0000000   0.2500000), wk =   0.0039062
        k(  260) = (  -0.5000000   0.0000000   0.3750000), wk =   0.0039062
        k(  261) = (  -0.5000000   0.0000000  -0.5000000), wk =   0.0039062
        k(  262) = (  -0.5000000   0.0000000  -0.3750000), wk =   0.0039062
        k(  263) = (  -0.5000000   0.0000000  -0.2500000), wk =   0.0039062
        k(  264) = (  -0.5000000   0.0000000  -0.1250000), wk =   0.0039062
        k(  265) = (  -0.5000000   0.1250000   0.0000000), wk =   0.0039062
        k(  266) = (  -0.5000000   0.1250000   0.1250000), wk =   0.0039062
        k(  267) = (  -0.5000000   0.1250000   0.2500000), wk =   0.0039062
        k(  268) = (  -0.5000000   0.1250000   0.3750000), wk =   0.0039062
        k(  269) = (  -0.5000000   0.1250000  -0.5000000), wk =   0.0039062
        k(  270) = (  -0.5000000   0.1250000  -0.3750000), wk =   0.0039062
        k(  271) = (  -0.5000000   0.1250000  -0.2500000), wk =   0.0039062
        k(  272) = (  -0.5000000   0.1250000  -0.1250000), wk =   0.0039062
        k(  273) = (  -0.5000000   0.2500000   0.0000000), wk =   0.0039062
        k(  274) = (  -0.5000000   0.2500000   0.1250000), wk =   0.0039062
        k(  275) = (  -0.5000000   0.2500000   0.2500000), wk =   0.0039062
        k(  276) = (  -0.5000000   0.2500000   0.3750000), wk =   0.0039062
        k(  277) = (  -0.5000000   0.2500000  -0.5000000), wk =   0.0039062
        k(  278) = (  -0.5000000   0.2500000  -0.3750000), wk =   0.0039062
        k(  279) = (  -0.5000000   0.2500000  -0.2500000), wk =   0.0039062
        k(  280) = (  -0.5000000   0.2500000  -0.1250000), wk =   0.0039062
        k(  281) = (  -0.5000000   0.3750000   0.0000000), wk =   0.0039062
        k(  282) = (  -0.5000000   0.3750000   0.1250000), wk =   0.0039062
        k(  283) = (  -0.5000000   0.3750000   0.2500000), wk =   0.0039062
        k(  284) = (  -0.5000000   0.3750000   0.3750000), wk =   0.0039062
        k(  285) = (  -0.5000000   0.3750000  -0.5000000), wk =   0.0039062
        k(  286) = (  -0.5000000   0.3750000  -0.3750000), wk =   0.0039062
        k(  287) = (  -0.5000000   0.3750000  -0.2500000), wk =   0.0039062
        k(  288) = (  -0.5000000   0.3750000  -0.1250000), wk =   0.0039062
        k(  289) = (  -0.5000000  -0.5000000   0.0000000), wk =   0.0039062
        k(  290) = (  -0.5000000  -0.5000000   0.1250000), wk =   0.0039062
        k(  291) = (  -0.5000000  -0.5000000   0.2500000), wk =   0.0039062
        k(  292) = (  -0.5000000  -0.5000000   0.3750000), wk =   0.0039062
        k(  293) = (  -0.5000000  -0.5000000  -0.5000000), wk =   0.0039062
        k(  294) = (  -0.5000000  -0.5000000  -0.3750000), wk =   0.0039062
        k(  295) = (  -0.5000000  -0.5000000  -0.2500000), wk =   0.0039062
        k(  296) = (  -0.5000000  -0.5000000  -0.1250000), wk =   0.0039062
        k(  297) = (  -0.5000000  -0.3750000   0.0000000), wk =   0.0039062
        k(  298) = (  -0.5000000  -0.3750000   0.1250000), wk =   0.0039062
        k(  299) = (  -0.5000000  -0.3750000   0.2500000), wk =   0.0039062
        k(  300) = (  -0.5000000  -0.3750000   0.3750000), wk =   0.0039062
        k(  301) = (  -0.5000000  -0.3750000  -0.5000000), wk =   0.0039062
        k(  302) = (  -0.5000000  -0.3750000  -0.3750000), wk =   0.0039062
        k(  303) = (  -0.5000000  -0.3750000  -0.2500000), wk =   0.0039062
        k(  304) = (  -0.5000000  -0.3750000  -0.1250000), wk =   0.0039062
        k(  305) = (  -0.5000000  -0.2500000   0.0000000), wk =   0.0039062
        k(  306) = (  -0.5000000  -0.2500000   0.1250000), wk =   0.0039062
        k(  307) = (  -0.5000000  -0.2500000   0.2500000), wk =   0.0039062
        k(  308) = (  -0.5000000  -0.2500000   0.3750000), wk =   0.0039062
        k(  309) = (  -0.5000000  -0.2500000  -0.5000000), wk =   0.0039062
        k(  310) = (  -0.5000000  -0.2500000  -0.3750000), wk =   0.0039062
        k(  311) = (  -0.5000000  -0.2500000  -0.2500000), wk =   0.0039062
        k(  312) = (  -0.5000000  -0.2500000  -0.1250000), wk =   0.0039062
        k(  313) = (  -0.5000000  -0.1250000   0.0000000), wk =   0.0039062
        k(  314) = (  -0.5000000  -0.1250000   0.1250000), wk =   0.0039062
        k(  315) = (  -0.5000000  -0.1250000   0.2500000), wk =   0.0039062
        k(  316) = (  -0.5000000  -0.1250000   0.3750000), wk =   0.0039062
        k(  317) = (  -0.5000000  -0.1250000  -0.5000000), wk =   0.0039062
        k(  318) = (  -0.5000000  -0.1250000  -0.3750000), wk =   0.0039062
        k(  319) = (  -0.5000000  -0.1250000  -0.2500000), wk =   0.0039062
        k(  320) = (  -0.5000000  -0.1250000  -0.1250000), wk =   0.0039062
        k(  321) = (  -0.3750000   0.0000000   0.0000000), wk =   0.0039062
        k(  322) = (  -0.3750000   0.0000000   0.1250000), wk =   0.0039062
        k(  323) = (  -0.3750000   0.0000000   0.2500000), wk =   0.0039062
        k(  324) = (  -0.3750000   0.0000000   0.3750000), wk =   0.0039062
        k(  325) = (  -0.3750000   0.0000000  -0.5000000), wk =   0.0039062
        k(  326) = (  -0.3750000   0.0000000  -0.3750000), wk =   0.0039062
        k(  327) = (  -0.3750000   0.0000000  -0.2500000), wk =   0.0039062
        k(  328) = (  -0.3750000   0.0000000  -0.1250000), wk =   0.0039062
        k(  329) = (  -0.3750000   0.1250000   0.0000000), wk =   0.0039062
        k(  330) = (  -0.3750000   0.1250000   0.1250000), wk =   0.0039062
        k(  331) = (  -0.3750000   0.1250000   0.2500000), wk =   0.0039062
        k(  332) = (  -0.3750000   0.1250000   0.3750000), wk =   0.0039062
        k(  333) = (  -0.3750000   0.1250000  -0.5000000), wk =   0.0039062
        k(  334) = (  -0.3750000   0.1250000  -0.3750000), wk =   0.0039062
        k(  335) = (  -0.3750000   0.1250000  -0.2500000), wk =   0.0039062
        k(  336) = (  -0.3750000   0.1250000  -0.1250000), wk =   0.0039062
        k(  337) = (  -0.3750000   0.2500000   0.0000000), wk =   0.0039062
        k(  338) = (  -0.3750000   0.2500000   0.1250000), wk =   0.0039062
        k(  339) = (  -0.3750000   0.2500000   0.2500000), wk =   0.0039062
        k(  340) = (  -0.3750000   0.2500000   0.3750000), wk =   0.0039062
        k(  341) = (  -0.3750000   0.2500000  -0.5000000), wk =   0.0039062
        k(  342) = (  -0.3750000   0.2500000  -0.3750000), wk =   0.0039062
        k(  343) = (  -0.3750000   0.2500000  -0.2500000), wk =   0.0039062
        k(  344) = (  -0.3750000   0.2500000  -0.1250000), wk =   0.0039062
        k(  345) = (  -0.3750000   0.3750000   0.0000000), wk =   0.0039062
        k(  346) = (  -0.3750000   0.3750000   0.1250000), wk =   0.0039062
        k(  347) = (  -0.3750000   0.3750000   0.2500000), wk =   0.0039062
        k(  348) = (  -0.3750000   0.3750000   0.3750000), wk =   0.0039062
        k(  349) = (  -0.3750000   0.3750000  -0.5000000), wk =   0.0039062
        k(  350) = (  -0.3750000   0.3750000  -0.3750000), wk =   0.0039062
        k(  351) = (  -0.3750000   0.3750000  -0.2500000), wk =   0.0039062
        k(  352) = (  -0.3750000   0.3750000  -0.1250000), wk =   0.0039062
        k(  353) = (  -0.3750000  -0.5000000   0.0000000), wk =   0.0039062
        k(  354) = (  -0.3750000  -0.5000000   0.1250000), wk =   0.0039062
        k(  355) = (  -0.3750000  -0.5000000   0.2500000), wk =   0.0039062
        k(  356) = (  -0.3750000  -0.5000000   0.3750000), wk =   0.0039062
        k(  357) = (  -0.3750000  -0.5000000  -0.5000000), wk =   0.0039062
        k(  358) = (  -0.3750000  -0.5000000  -0.3750000), wk =   0.0039062
        k(  359) = (  -0.3750000  -0.5000000  -0.2500000), wk =   0.0039062
        k(  360) = (  -0.3750000  -0.5000000  -0.1250000), wk =   0.0039062
        k(  361) = (  -0.3750000  -0.3750000   0.0000000), wk =   0.0039062
        k(  362) = (  -0.3750000  -0.3750000   0.1250000), wk =   0.0039062
        k(  363) = (  -0.3750000  -0.3750000   0.2500000), wk =   0.0039062
        k(  364) = (  -0.3750000  -0.3750000   0.3750000), wk =   0.0039062
        k(  365) = (  -0.3750000  -0.3750000  -0.5000000), wk =   0.0039062
        k(  366) = (  -0.3750000  -0.3750000  -0.3750000), wk =   0.0039062
        k(  367) = (  -0.3750000  -0.3750000  -0.2500000), wk =   0.0039062
        k(  368) = (  -0.3750000  -0.3750000  -0.1250000), wk =   0.0039062
        k(  369) = (  -0.3750000  -0.2500000   0.0000000), wk =   0.0039062
        k(  370) = (  -0.3750000  -0.2500000   0.1250000), wk =   0.0039062
        k(  371) = (  -0.3750000  -0.2500000   0.2500000), wk =   0.0039062
        k(  372) = (  -0.3750000  -0.2500000   0.3750000), wk =   0.0039062
        k(  373) = (  -0.3750000  -0.2500000  -0.5000000), wk =   0.0039062
        k(  374) = (  -0.3750000  -0.2500000  -0.3750000), wk =   0.0039062
        k(  375) = (  -0.3750000  -0.2500000  -0.2500000), wk =   0.0039062
        k(  376) = (  -0.3750000  -0.2500000  -0.1250000), wk =   0.0039062
        k(  377) = (  -0.3750000  -0.1250000   0.0000000), wk =   0.0039062
        k(  378) = (  -0.3750000  -0.1250000   0.1250000), wk =   0.0039062
        k(  379) = (  -0.3750000  -0.1250000   0.2500000), wk =   0.0039062
        k(  380) = (  -0.3750000  -0.1250000   0.3750000), wk =   0.0039062
        k(  381) = (  -0.3750000  -0.1250000  -0.5000000), wk =   0.0039062
        k(  382) = (  -0.3750000  -0.1250000  -0.3750000), wk =   0.0039062
        k(  383) = (  -0.3750000  -0.1250000  -0.2500000), wk =   0.0039062
        k(  384) = (  -0.3750000  -0.1250000  -0.1250000), wk =   0.0039062
        k(  385) = (  -0.2500000   0.0000000   0.0000000), wk =   0.0039062
        k(  386) = (  -0.2500000   0.0000000   0.1250000), wk =   0.0039062
        k(  387) = (  -0.2500000   0.0000000   0.2500000), wk =   0.0039062
        k(  388) = (  -0.2500000   0.0000000   0.3750000), wk =   0.0039062
        k(  389) = (  -0.2500000   0.0000000  -0.5000000), wk =   0.0039062
        k(  390) = (  -0.2500000   0.0000000  -0.3750000), wk =   0.0039062
        k(  391) = (  -0.2500000   0.0000000  -0.2500000), wk =   0.0039062
        k(  392) = (  -0.2500000   0.0000000  -0.1250000), wk =   0.0039062
        k(  393) = (  -0.2500000   0.1250000   0.0000000), wk =   0.0039062
        k(  394) = (  -0.2500000   0.1250000   0.1250000), wk =   0.0039062
        k(  395) = (  -0.2500000   0.1250000   0.2500000), wk =   0.0039062
        k(  396) = (  -0.2500000   0.1250000   0.3750000), wk =   0.0039062
        k(  397) = (  -0.2500000   0.1250000  -0.5000000), wk =   0.0039062
        k(  398) = (  -0.2500000   0.1250000  -0.3750000), wk =   0.0039062
        k(  399) = (  -0.2500000   0.1250000  -0.2500000), wk =   0.0039062
        k(  400) = (  -0.2500000   0.1250000  -0.1250000), wk =   0.0039062
        k(  401) = (  -0.2500000   0.2500000   0.0000000), wk =   0.0039062
        k(  402) = (  -0.2500000   0.2500000   0.1250000), wk =   0.0039062
        k(  403) = (  -0.2500000   0.2500000   0.2500000), wk =   0.0039062
        k(  404) = (  -0.2500000   0.2500000   0.3750000), wk =   0.0039062
        k(  405) = (  -0.2500000   0.2500000  -0.5000000), wk =   0.0039062
        k(  406) = (  -0.2500000   0.2500000  -0.3750000), wk =   0.0039062
        k(  407) = (  -0.2500000   0.2500000  -0.2500000), wk =   0.0039062
        k(  408) = (  -0.2500000   0.2500000  -0.1250000), wk =   0.0039062
        k(  409) = (  -0.2500000   0.3750000   0.0000000), wk =   0.0039062
        k(  410) = (  -0.2500000   0.3750000   0.1250000), wk =   0.0039062
        k(  411) = (  -0.2500000   0.3750000   0.2500000), wk =   0.0039062
        k(  412) = (  -0.2500000   0.3750000   0.3750000), wk =   0.0039062
        k(  413) = (  -0.2500000   0.3750000  -0.5000000), wk =   0.0039062
        k(  414) = (  -0.2500000   0.3750000  -0.3750000), wk =   0.0039062
        k(  415) = (  -0.2500000   0.3750000  -0.2500000), wk =   0.0039062
        k(  416) = (  -0.2500000   0.3750000  -0.1250000), wk =   0.0039062
        k(  417) = (  -0.2500000  -0.5000000   0.0000000), wk =   0.0039062
        k(  418) = (  -0.2500000  -0.5000000   0.1250000), wk =   0.0039062
        k(  419) = (  -0.2500000  -0.5000000   0.2500000), wk =   0.0039062
        k(  420) = (  -0.2500000  -0.5000000   0.3750000), wk =   0.0039062
        k(  421) = (  -0.2500000  -0.5000000  -0.5000000), wk =   0.0039062
        k(  422) = (  -0.2500000  -0.5000000  -0.3750000), wk =   0.0039062
        k(  423) = (  -0.2500000  -0.5000000  -0.2500000), wk =   0.0039062
        k(  424) = (  -0.2500000  -0.5000000  -0.1250000), wk =   0.0039062
        k(  425) = (  -0.2500000  -0.3750000   0.0000000), wk =   0.0039062
        k(  426) = (  -0.2500000  -0.3750000   0.1250000), wk =   0.0039062
        k(  427) = (  -0.2500000  -0.3750000   0.2500000), wk =   0.0039062
        k(  428) = (  -0.2500000  -0.3750000   0.3750000), wk =   0.0039062
        k(  429) = (  -0.2500000  -0.3750000  -0.5000000), wk =   0.0039062
        k(  430) = (  -0.2500000  -0.3750000  -0.3750000), wk =   0.0039062
        k(  431) = (  -0.2500000  -0.3750000  -0.2500000), wk =   0.0039062
        k(  432) = (  -0.2500000  -0.3750000  -0.1250000), wk =   0.0039062
        k(  433) = (  -0.2500000  -0.2500000   0.0000000), wk =   0.0039062
        k(  434) = (  -0.2500000  -0.2500000   0.1250000), wk =   0.0039062
        k(  435) = (  -0.2500000  -0.2500000   0.2500000), wk =   0.0039062
        k(  436) = (  -0.2500000  -0.2500000   0.3750000), wk =   0.0039062
        k(  437) = (  -0.2500000  -0.2500000  -0.5000000), wk =   0.0039062
        k(  438) = (  -0.2500000  -0.2500000  -0.3750000), wk =   0.0039062
        k(  439) = (  -0.2500000  -0.2500000  -0.2500000), wk =   0.0039062
        k(  440) = (  -0.2500000  -0.2500000  -0.1250000), wk =   0.0039062
        k(  441) = (  -0.2500000  -0.1250000   0.0000000), wk =   0.0039062
        k(  442) = (  -0.2500000  -0.1250000   0.1250000), wk =   0.0039062
        k(  443) = (  -0.2500000  -0.1250000   0.2500000), wk =   0.0039062
        k(  444) = (  -0.2500000  -0.1250000   0.3750000), wk =   0.0039062
        k(  445) = (  -0.2500000  -0.1250000  -0.5000000), wk =   0.0039062
        k(  446) = (  -0.2500000  -0.1250000  -0.3750000), wk =   0.0039062
        k(  447) = (  -0.2500000  -0.1250000  -0.2500000), wk =   0.0039062
        k(  448) = (  -0.2500000  -0.1250000  -0.1250000), wk =   0.0039062
        k(  449) = (  -0.1250000   0.0000000   0.0000000), wk =   0.0039062
        k(  450) = (  -0.1250000   0.0000000   0.1250000), wk =   0.0039062
        k(  451) = (  -0.1250000   0.0000000   0.2500000), wk =   0.0039062
        k(  452) = (  -0.1250000   0.0000000   0.3750000), wk =   0.0039062
        k(  453) = (  -0.1250000   0.0000000  -0.5000000), wk =   0.0039062
        k(  454) = (  -0.1250000   0.0000000  -0.3750000), wk =   0.0039062
        k(  455) = (  -0.1250000   0.0000000  -0.2500000), wk =   0.0039062
        k(  456) = (  -0.1250000   0.0000000  -0.1250000), wk =   0.0039062
        k(  457) = (  -0.1250000   0.1250000   0.0000000), wk =   0.0039062
        k(  458) = (  -0.1250000   0.1250000   0.1250000), wk =   0.0039062
        k(  459) = (  -0.1250000   0.1250000   0.2500000), wk =   0.0039062
        k(  460) = (  -0.1250000   0.1250000   0.3750000), wk =   0.0039062
        k(  461) = (  -0.1250000   0.1250000  -0.5000000), wk =   0.0039062
        k(  462) = (  -0.1250000   0.1250000  -0.3750000), wk =   0.0039062
        k(  463) = (  -0.1250000   0.1250000  -0.2500000), wk =   0.0039062
        k(  464) = (  -0.1250000   0.1250000  -0.1250000), wk =   0.0039062
        k(  465) = (  -0.1250000   0.2500000   0.0000000), wk =   0.0039062
        k(  466) = (  -0.1250000   0.2500000   0.1250000), wk =   0.0039062
        k(  467) = (  -0.1250000   0.2500000   0.2500000), wk =   0.0039062
        k(  468) = (  -0.1250000   0.2500000   0.3750000), wk =   0.0039062
        k(  469) = (  -0.1250000   0.2500000  -0.5000000), wk =   0.0039062
        k(  470) = (  -0.1250000   0.2500000  -0.3750000), wk =   0.0039062
        k(  471) = (  -0.1250000   0.2500000  -0.2500000), wk =   0.0039062
        k(  472) = (  -0.1250000   0.2500000  -0.1250000), wk =   0.0039062
        k(  473) = (  -0.1250000   0.3750000   0.0000000), wk =   0.0039062
        k(  474) = (  -0.1250000   0.3750000   0.1250000), wk =   0.0039062
        k(  475) = (  -0.1250000   0.3750000   0.2500000), wk =   0.0039062
        k(  476) = (  -0.1250000   0.3750000   0.3750000), wk =   0.0039062
        k(  477) = (  -0.1250000   0.3750000  -0.5000000), wk =   0.0039062
[...]
    19.7445  20.9423  21.7476  25.9161  29.3770  32.8549  36.6891  38.1052
    39.3317  42.9670  45.7059  47.9728  49.6947  51.1297  52.7304  55.3885
    56.0444  57.5347  61.2719  62.5187  64.6170  65.3923  66.0324  67.4220
    69.2697  71.1791  72.1324  75.7318  81.0974  82.9740  85.1858  86.0102

     occupation numbers 
     1.0000   1.0000   1.0000   1.0000   1.0000   1.0000   1.0000   1.0000
     0.0000   0.0000   0.0000   0.0000   0.0000   0.0000   0.0000   0.0000
     0.0000   0.0000   0.0000   0.0000   0.0000   0.0000   0.0000   0.0000
     0.0000   0.0000   0.0000   0.0000   0.0000   0.0000   0.0000   0.0000
     0.0000   0.0000   0.0000   0.0000   0.0000   0.0000   0.0000   0.0000

          k = 0.2500-0.7500 0.0000 (  1502 PWs)   bands (ev):

   -63.2883 -30.1361 -30.1015 -30.0928  -6.8702   5.3182   7.2918   7.7454
    19.5115  19.5193  22.4237  26.7839  28.5019  33.8267  36.8971  38.1929
    39.0811  43.0466  43.0536  47.3604  48.1061  51.7012  52.2199  53.1472
    57.5389  59.2200  62.6146  63.7055  64.9279  64.9662  68.7082  69.6677
    71.2890  73.0214  74.0728  75.0494  81.0958  82.7779  84.7976  86.0484

     occupation numbers 
     1.0000   1.0000   1.0000   1.0000   1.0000   1.0000   1.0000   1.0000
     0.0000   0.0000   0.0000   0.0000   0.0000   0.0000   0.0000   0.0000
     0.0000   0.0000   0.0000   0.0000   0.0000   0.0000   0.0000   0.0000
     0.0000   0.0000   0.0000   0.0000   0.0000   0.0000   0.0000   0.0000
     0.0000   0.0000   0.0000   0.0000   0.0000   0.0000   0.0000   0.0000

          k = 0.1250-0.6250-0.1250 (  1496 PWs)   bands (ev):

   -63.2903 -30.1290 -30.0908 -30.0887  -7.1471   5.6012   7.7957   8.0390
    18.3927  19.7845  23.4122  27.0886  27.5577  33.5142  36.8008  37.1904
    39.0497  41.3952  43.1201  44.6060  47.8602  50.2241  52.6722  55.7895
    59.3838  60.9021  63.7002  63.7747  64.3954  68.2227  69.6306  71.9314
    73.5283  74.4899  76.8344  77.9604  80.5449  80.6285  81.1835  83.0001

     occupation numbers 
     1.0000   1.0000   1.0000   1.0000   1.0000   1.0000   1.0000   1.0000
     0.0000   0.0000   0.0000   0.0000   0.0000   0.0000   0.0000   0.0000
     0.0000   0.0000   0.0000   0.0000   0.0000   0.0000   0.0000   0.0000
     0.0000   0.0000   0.0000   0.0000   0.0000   0.0000   0.0000   0.0000
     0.0000   0.0000   0.0000   0.0000   0.0000   0.0000   0.0000   0.0000

          k = 0.0000-0.5000-0.2500 (  1490 PWs)   bands (ev):

   -63.2920 -30.1216 -30.0898 -30.0785  -7.3603   5.9649   7.8387   8.3795
    17.7102  20.6198  24.3616  26.8409  27.3682  31.8127  35.2388  37.0250
    38.3865  40.6357  42.1369  45.8076  47.6270  51.2677  53.3125  55.7711
    58.2757  62.6393  64.6016  66.6428  66.7560  69.1102  72.6335  72.6406
    73.7332  74.1390  75.6033  76.5712  78.0902  79.1663  84.3727  84.3768

     occupation numbers 
     1.0000   1.0000   1.0000   1.0000   1.0000   1.0000   1.0000   1.0000
     0.0000   0.0000   0.0000   0.0000   0.0000   0.0000   0.0000   0.0000
     0.0000   0.0000   0.0000   0.0000   0.0000   0.0000   0.0000   0.0000
     0.0000   0.0000   0.0000   0.0000   0.0000   0.0000   0.0000   0.0000
     0.0000   0.0000   0.0000   0.0000   0.0000   0.0000   0.0000   0.0000

          k =-0.1250-0.3750-0.3750 (  1495 PWs)   bands (ev):

   -63.2925 -30.1263 -30.0854 -30.0738  -7.3957   5.7997   8.0017   8.5794
    17.2518  21.2399  24.8677  26.5183  28.3518  30.6813  32.9775  37.7580
    39.1503  39.8256  42.2315  45.6211  48.2658  50.5696  53.1946  56.1633
    61.0521  62.8901  64.6183  66.7518  67.7642  68.7738  70.4604  72.2770
    73.5152  74.1934  75.2242  78.2817  78.7234  82.0245  82.5744  83.0874

     occupation numbers 
     1.0000   1.0000   1.0000   1.0000   1.0000   1.0000   1.0000   1.0000
     0.0000   0.0000   0.0000   0.0000   0.0000   0.0000   0.0000   0.0000
     0.0000   0.0000   0.0000   0.0000   0.0000   0.0000   0.0000   0.0000
     0.0000   0.0000   0.0000   0.0000   0.0000   0.0000   0.0000   0.0000
     0.0000   0.0000   0.0000   0.0000   0.0000   0.0000   0.0000   0.0000

          k =-0.1250-0.1250-0.3750 (  1487 PWs)   bands (ev):

   -63.2947 -30.1055 -30.0779 -30.0761  -7.7207   6.7284   8.5108   8.5169
    16.4501  21.4177  25.6353  26.0770  27.3368  31.2755  33.4012  36.6692
    36.7482  37.7519  43.9942  45.7177  47.6801  52.7906  53.5584  55.4183
    58.9054  61.8247  65.2544  69.1880  71.3636  71.4878  72.5047  73.9753
    74.1462  75.8863  77.3743  78.0038  79.8199  80.8370  82.4487  83.0283

     occupation numbers 
     1.0000   1.0000   1.0000   1.0000   1.0000   1.0000   1.0000   1.0000
     0.0000   0.0000   0.0000   0.0000   0.0000   0.0000   0.0000   0.0000
     0.0000   0.0000   0.0000   0.0000   0.0000   0.0000   0.0000   0.0000
     0.0000   0.0000   0.0000   0.0000   0.0000   0.0000   0.0000   0.0000
     0.0000   0.0000   0.0000   0.0000   0.0000   0.0000   0.0000   0.0000

          k =-0.2500 0.0000-0.5000 (  1490 PWs)   bands (ev):

   -63.2920 -30.1216 -30.0898 -30.0785  -7.3603   5.9649   7.8387   8.3795
    17.7102  20.6198  24.3616  26.8409  27.3682  31.8127  35.2388  37.0250
    38.3865  40.6357  42.1369  45.8076  47.6270  51.2677  53.3125  55.7711
    58.2757  62.6393  64.6016  66.6428  66.7560  69.1102  72.6335  72.6406
    73.7332  74.1390  75.6033  76.5712  78.0902  79.1663  84.3727  84.3768

     occupation numbers 
     1.0000   1.0000   1.0000   1.0000   1.0000   1.0000   1.0000   1.0000
     0.0000   0.0000   0.0000   0.0000   0.0000   0.0000   0.0000   0.0000
     0.0000   0.0000   0.0000   0.0000   0.0000   0.0000   0.0000   0.0000
     0.0000   0.0000   0.0000   0.0000   0.0000   0.0000   0.0000   0.0000
     0.0000   0.0000   0.0000   0.0000   0.0000   0.0000   0.0000   0.0000

          k =-0.3750 0.1250-0.6250 (  1500 PWs)   bands (ev):

   -63.2894 -30.1386 -30.0983 -30.0831  -6.9669   5.2594   7.2574   8.1239
    18.6834  20.8181  23.1967  26.4397  28.9758  31.7687  35.4551  38.4195
    38.9076  41.5416  42.2217  47.8198  49.1605  49.5035  53.7579  57.2564
    58.7489  60.1618  62.2404  63.7674  65.7742  66.0840  67.1699  70.7469
    71.1293  72.9584  73.9697  76.8077  78.4786  82.1094  82.5110  85.9443

     occupation numbers 
     1.0000   1.0000   1.0000   1.0000   1.0000   1.0000   1.0000   1.0000
     0.0000   0.0000   0.0000   0.0000   0.0000   0.0000   0.0000   0.0000
     0.0000   0.0000   0.0000   0.0000   0.0000   0.0000   0.0000   0.0000
     0.0000   0.0000   0.0000   0.0000   0.0000   0.0000   0.0000   0.0000
     0.0000   0.0000   0.0000   0.0000   0.0000   0.0000   0.0000   0.0000

          k =-0.5000 0.2500-0.7500 (  1494 PWs)   bands (ev):

   -63.2883 -30.1460 -30.1006 -30.0858  -6.7920   4.9583   7.0480   8.0033
    18.8353  21.3955  22.7616  26.1926  29.8487  31.4202  35.5904  38.2688
    39.0551  40.9354  44.6389  45.2002  52.3502  52.9296  54.6642  55.7857
    57.1754  58.3633  61.0418  62.7337  63.8881  64.8349  66.3337  70.1073
    70.3403  72.5147  73.9263  76.2964  79.7267  80.7475  83.5851  84.8732

     occupation numbers 
     1.0000   1.0000   1.0000   1.0000   1.0000   1.0000   1.0000   1.0000
     0.0000   0.0000   0.0000   0.0000   0.0000   0.0000   0.0000   0.0000
     0.0000   0.0000   0.0000   0.0000   0.0000   0.0000   0.0000   0.0000
     0.0000   0.0000   0.0000   0.0000   0.0000   0.0000   0.0000   0.0000
     0.0000   0.0000   0.0000   0.0000   0.0000   0.0000   0.0000   0.0000

          k = 0.3750-0.6250 0.1250 (  1500 PWs)   bands (ev):

   -63.2894 -30.1386 -30.0983 -30.0831  -6.9669   5.2594   7.2574   8.1239
    18.6834  20.8181  23.1967  26.4397  28.9758  31.7687  35.4551  38.4195
    38.9076  41.5416  42.2217  47.8198  49.1605  49.5035  53.7579  57.2564
    58.7489  60.1618  62.2404  63.7674  65.7742  66.0840  67.1699  70.7469
    71.1293  72.9584  73.9697  76.8077  78.4786  82.1094  82.5110  85.9443

     occupation numbers 
     1.0000   1.0000   1.0000   1.0000   1.0000   1.0000   1.0000   1.0000
     0.0000   0.0000   0.0000   0.0000   0.0000   0.0000   0.0000   0.0000
     0.0000   0.0000   0.0000   0.0000   0.0000   0.0000   0.0000   0.0000
     0.0000   0.0000   0.0000   0.0000   0.0000   0.0000   0.0000   0.0000
     0.0000   0.0000   0.0000   0.0000   0.0000   0.0000   0.0000   0.0000

          k = 0.2500-0.5000 0.0000 (  1490 PWs)   bands (ev):

   -63.2920 -30.1216 -30.0898 -30.0785  -7.3603   5.9649   7.8387   8.3795
    17.7102  20.6198  24.3616  26.8409  27.3682  31.8127  35.2388  37.0250
    38.3865  40.6357  42.1369  45.8076  47.6270  51.2677  53.3125  55.7711
    58.2757  62.6393  64.6016  66.6428  66.7560  69.1102  72.6335  72.6406
    73.7332  74.1390  75.6033  76.5712  78.0902  79.1663  84.3727  84.3768

     occupation numbers 
     1.0000   1.0000   1.0000   1.0000   1.0000   1.0000   1.0000   1.0000
     0.0000   0.0000   0.0000   0.0000   0.0000   0.0000   0.0000   0.0000
     0.0000   0.0000   0.0000   0.0000   0.0000   0.0000   0.0000   0.0000
     0.0000   0.0000   0.0000   0.0000   0.0000   0.0000   0.0000   0.0000
     0.0000   0.0000   0.0000   0.0000   0.0000   0.0000   0.0000   0.0000

          k = 0.1250-0.3750-0.1250 (  1487 PWs)   bands (ev):

   -63.2947 -30.1055 -30.0779 -30.0761  -7.7207   6.7284   8.5108   8.5169
    16.4501  21.4177  25.6353  26.0770  27.3368  31.2755  33.4012  36.6692
    36.7482  37.7519  43.9942  45.7177  47.6801  52.7906  53.5584  55.4183
    58.9054  61.8247  65.2544  69.1880  71.3636  71.4878  72.5047  73.9753
    74.1462  75.8863  77.3743  78.0038  79.8199  80.8370  82.4487  83.0283

     occupation numbers 
     1.0000   1.0000   1.0000   1.0000   1.0000   1.0000   1.0000   1.0000
     0.0000   0.0000   0.0000   0.0000   0.0000   0.0000   0.0000   0.0000
     0.0000   0.0000   0.0000   0.0000   0.0000   0.0000   0.0000   0.0000
     0.0000   0.0000   0.0000   0.0000   0.0000   0.0000   0.0000   0.0000
     0.0000   0.0000   0.0000   0.0000   0.0000   0.0000   0.0000   0.0000

          k = 0.0000-0.2500-0.2500 (  1478 PWs)   bands (ev):

   -63.2957 -30.0982 -30.0782 -30.0705  -7.8619   7.1274   8.4722   8.8162
    15.9361  22.0525  25.4294  26.0713  28.2210  30.2030  32.8541  35.2393
    36.3723  37.5128  43.9614  46.8058  48.3082  51.3547  54.7133  55.2908
    61.3253  61.8731  63.4580  70.3338  70.6430  73.0504  73.4769  73.7918
    75.5074  76.2045  77.2813  78.2903  78.7044  81.2919  82.9287  84.3356

     occupation numbers 
     1.0000   1.0000   1.0000   1.0000   1.0000   1.0000   1.0000   1.0000
     0.0000   0.0000   0.0000   0.0000   0.0000   0.0000   0.0000   0.0000
     0.0000   0.0000   0.0000   0.0000   0.0000   0.0000   0.0000   0.0000
     0.0000   0.0000   0.0000   0.0000   0.0000   0.0000   0.0000   0.0000
     0.0000   0.0000   0.0000   0.0000   0.0000   0.0000   0.0000   0.0000

          k = 0.0000 0.0000-0.2500 (  1479 PWs)   bands (ev):

   -63.2973 -30.0816 -30.0734 -30.0734  -8.0706   7.9713   8.7681   8.7681
    15.1560  22.7725  25.5432  25.5432  28.1782  31.3553  32.1712  34.4824
    34.4824  35.9436  45.9589  47.1247  47.1247  51.3431  57.7166  57.7166
    58.1393  60.3120  65.7707  70.4554  70.4554  70.7091  73.8982  74.2819
    75.8997  77.4927  77.4927  80.9617  81.6086  81.6086  82.4901  85.1799

     occupation numbers 
     1.0000   1.0000   1.0000   1.0000   1.0000   1.0000   1.0000   1.0000
     0.0000   0.0000   0.0000   0.0000   0.0000   0.0000   0.0000   0.0000
     0.0000   0.0000   0.0000   0.0000   0.0000   0.0000   0.0000   0.0000
     0.0000   0.0000   0.0000   0.0000   0.0000   0.0000   0.0000   0.0000
     0.0000   0.0000   0.0000   0.0000   0.0000   0.0000   0.0000   0.0000

          k =-0.1250 0.1250-0.3750 (  1487 PWs)   bands (ev):

   -63.2947 -30.1055 -30.0779 -30.0761  -7.7207   6.7284   8.5108   8.5169
    16.4501  21.4177  25.6353  26.0770  27.3368  31.2755  33.4012  36.6692
    36.7482  37.7519  43.9942  45.7177  47.6801  52.7906  53.5584  55.4183
    58.9054  61.8247  65.2544  69.1880  71.3636  71.4878  72.5047  73.9753
    74.1462  75.8863  77.3743  78.0038  79.8199  80.8370  82.4487  83.0283

     occupation numbers 
     1.0000   1.0000   1.0000   1.0000   1.0000   1.0000   1.0000   1.0000
     0.0000   0.0000   0.0000   0.0000   0.0000   0.0000   0.0000   0.0000
     0.0000   0.0000   0.0000   0.0000   0.0000   0.0000   0.0000   0.0000
     0.0000   0.0000   0.0000   0.0000   0.0000   0.0000   0.0000   0.0000
     0.0000   0.0000   0.0000   0.0000   0.0000   0.0000   0.0000   0.0000

          k =-0.2500 0.2500-0.5000 (  1488 PWs)   bands (ev):

   -63.2913 -30.1360 -30.0812 -30.0808  -7.2368   5.3770   8.1380   8.2982
    17.4875  21.0989  24.6692  26.1704  28.6371  31.8812  32.8577  38.6672
    39.5580  39.7624  42.4869  44.8865  47.8392  51.6716  52.9506  57.4043
    60.4763  61.6409  63.8776  66.1225  66.4955  66.5373  70.5600  71.8559
    73.4813  74.4650  75.0076  78.2897  78.5661  79.7834  80.2371  83.4710

     occupation numbers 
     1.0000   1.0000   1.0000   1.0000   1.0000   1.0000   1.0000   1.0000
     0.0000   0.0000   0.0000   0.0000   0.0000   0.0000   0.0000   0.0000
     0.0000   0.0000   0.0000   0.0000   0.0000   0.0000   0.0000   0.0000
     0.0000   0.0000   0.0000   0.0000   0.0000   0.0000   0.0000   0.0000
     0.0000   0.0000   0.0000   0.0000   0.0000   0.0000   0.0000   0.0000

          k =-0.3750 0.3750-0.6250 (  1493 PWs)   bands (ev):

   -63.2894 -30.1542 -30.0858 -30.0813  -6.9063   4.6026   7.8403   8.2273
    17.7404  21.6079  24.1440  25.9825  30.0721  32.3399  32.5383  38.9248
    39.5844  39.8475  42.6258  44.3202  51.0625  54.4552  55.2151  55.8145
    58.5829  61.0441  61.3956  62.6823  63.8836  66.7073  67.2823  70.2195
    71.6503  73.7052  75.8445  78.1616  78.3472  79.2228  80.6357  81.8697

     occupation numbers 
     1.0000   1.0000   1.0000   1.0000   1.0000   1.0000   1.0000   1.0000
     0.0000   0.0000   0.0000   0.0000   0.0000   0.0000   0.0000   0.0000
     0.0000   0.0000   0.0000   0.0000   0.0000   0.0000   0.0000   0.0000
     0.0000   0.0000   0.0000   0.0000   0.0000   0.0000   0.0000   0.0000
     0.0000   0.0000   0.0000   0.0000   0.0000   0.0000   0.0000   0.0000

          k = 0.5000-0.5000 0.2500 (  1493 PWs)   bands (ev):

   -63.2898 -30.1500 -30.0879 -30.0783  -6.9791   4.7781   7.7765   8.3390
    17.7395  21.5207  24.2483  26.0549  30.6297  30.9245  32.5455  39.1799
    39.5552  40.7724  41.4367  45.4331  49.0700  52.2965  55.5446  57.5206
    60.1240  60.3315  62.2181  63.6041  65.2013  66.1642  66.9558  70.0494
    71.9127  73.7507  75.4576  78.4256  78.5388  80.6857  81.2911  81.7490

     occupation numbers 
     1.0000   1.0000   1.0000   1.0000   1.0000   1.0000   1.0000   1.0000
     0.0000   0.0000   0.0000   0.0000   0.0000   0.0000   0.0000   0.0000
     0.0000   0.0000   0.0000   0.0000   0.0000   0.0000   0.0000   0.0000
     0.0000   0.0000   0.0000   0.0000   0.0000   0.0000   0.0000   0.0000
     0.0000   0.0000   0.0000   0.0000   0.0000   0.0000   0.0000   0.0000

          k = 0.3750-0.3750 0.1250 (  1495 PWs)   bands (ev):

   -63.2925 -30.1263 -30.0854 -30.0738  -7.3957   5.7997   8.0017   8.5794
    17.2518  21.2399  24.8677  26.5183  28.3518  30.6813  32.9775  37.7580
    39.1503  39.8256  42.2315  45.6211  48.2658  50.5696  53.1946  56.1633
    61.0521  62.8901  64.6183  66.7518  67.7642  68.7738  70.4604  72.2770
    73.5152  74.1934  75.2242  78.2817  78.7234  82.0245  82.5744  83.0874

     occupation numbers 
     1.0000   1.0000   1.0000   1.0000   1.0000   1.0000   1.0000   1.0000
     0.0000   0.0000   0.0000   0.0000   0.0000   0.0000   0.0000   0.0000
     0.0000   0.0000   0.0000   0.0000   0.0000   0.0000   0.0000   0.0000
     0.0000   0.0000   0.0000   0.0000   0.0000   0.0000   0.0000   0.0000
     0.0000   0.0000   0.0000   0.0000   0.0000   0.0000   0.0000   0.0000

          k = 0.2500-0.2500 0.0000 (  1478 PWs)   bands (ev):

   -63.2957 -30.0982 -30.0782 -30.0705  -7.8619   7.1274   8.4722   8.8162
    15.9361  22.0525  25.4294  26.0713  28.2210  30.2030  32.8541  35.2393
    36.3723  37.5128  43.9614  46.8058  48.3082  51.3547  54.7133  55.2908
    61.3253  61.8731  63.4580  70.3338  70.6430  73.0504  73.4769  73.7918
    75.5074  76.2045  77.2813  78.2903  78.7044  81.2919  82.9287  84.3356

     occupation numbers 
     1.0000   1.0000   1.0000   1.0000   1.0000   1.0000   1.0000   1.0000
     0.0000   0.0000   0.0000   0.0000   0.0000   0.0000   0.0000   0.0000
     0.0000   0.0000   0.0000   0.0000   0.0000   0.0000   0.0000   0.0000
     0.0000   0.0000   0.0000   0.0000   0.0000   0.0000   0.0000   0.0000
     0.0000   0.0000   0.0000   0.0000   0.0000   0.0000   0.0000   0.0000

          k = 0.1250-0.1250-0.1250 (  1468 PWs)   bands (ev):

   -63.2977 -30.0825 -30.0703 -30.0703  -8.1250   8.0507   8.8980   8.8980
    14.8599  23.2920  25.3782  25.3782  29.8874  29.8874  31.1139  33.8744
    35.3898  35.3898  45.8055  47.6568  47.6568  50.5150  57.0763  57.0763
    60.8764  63.5066  63.5066  66.9558  70.7780  72.2698  72.2698  74.7337
    74.7337  79.9068  80.6384  80.8779  80.8779  82.8445  82.8445  85.1946

     occupation numbers 
     1.0000   1.0000   1.0000   1.0000   1.0000   1.0000   1.0000   1.0000
     0.0000   0.0000   0.0000   0.0000   0.0000   0.0000   0.0000   0.0000
     0.0000   0.0000   0.0000   0.0000   0.0000   0.0000   0.0000   0.0000
     0.0000   0.0000   0.0000   0.0000   0.0000   0.0000   0.0000   0.0000
     0.0000   0.0000   0.0000   0.0000   0.0000   0.0000   0.0000   0.0000

     highest occupied, lowest unoccupied level (ev):     9.0028   13.9552

     Writing all to output data dir ./out/mgo.save/ :
     XML data file, pseudopotentials, collected wavefunctions

     init_run     :      0.71s CPU      0.27s WALL (       1 calls)
     electrons    :    825.90s CPU    118.69s WALL (       1 calls)

     Called by init_run:
     wfcinit      :      0.00s CPU      0.00s WALL (       1 calls)
     wfcinit:wfcr :     35.71s CPU      5.26s WALL (     512 calls)
     potinit      :      0.01s CPU      0.00s WALL (       1 calls)
     hinit0       :      0.50s CPU      0.21s WALL (       1 calls)

     Called by electrons:
     c_bands      :    825.82s CPU    118.68s WALL (       1 calls)
     v_of_rho     :      0.01s CPU      0.00s WALL (       1 calls)
     v_h          :      0.00s CPU      0.00s WALL (       1 calls)
     v_xc         :      0.01s CPU      0.00s WALL (       1 calls)

     Called by c_bands:
     init_us_2    :      0.55s CPU      0.09s WALL (     512 calls)
     cegterg      :    779.73s CPU    111.84s WALL (    1001 calls)

     Called by sum_band:

     Called by *egterg:
     cdiaghg      :    123.16s CPU     17.41s WALL (   15319 calls)
     cegterg:over :     35.65s CPU      5.14s WALL (   14807 calls)
     cegterg:upda :     21.72s CPU      3.12s WALL (   14807 calls)
     cegterg:last :     40.14s CPU      5.63s WALL (    8418 calls)
     h_psi        :    570.11s CPU     82.05s WALL (   16320 calls)
     g_psi        :     12.48s CPU      1.97s WALL (   14807 calls)

     Called by h_psi:
     h_psi:calbec :     10.15s CPU      1.37s WALL (   16320 calls)
     vloc_psi     :    549.94s CPU     79.03s WALL (   16320 calls)
                                        0.00s GPU  (   16320 calls)
     add_vuspsi   :      5.22s CPU      0.84s WALL (   16320 calls)

     General routines
     calbec       :     10.01s CPU      1.35s WALL (   16320 calls)
     fft          :      0.27s CPU      0.14s WALL (      10 calls)
     fftw         :    428.95s CPU     61.53s WALL (  738702 calls)
     davcio       :      1.16s CPU      0.25s WALL (    1024 calls)


     PWSCF        :  13m48.20s CPU   1m59.38s WALL


   This run was terminated on:  18:29:41  15Jun2026            

=------------------------------------------------------------------------------=
   JOB DONE.
=------------------------------------------------------------------------------=
