
     Program PWSCF v.7.5 starts on 26Jun2026 at  9:39:30 

     This program is part of the open-source Quantum ESPRESSO suite
     for quantum simulation of materials; please cite
         "P. Giannozzi et al., J. Phys.:Condens. Matter 21 395502 (2009);
         "P. Giannozzi et al., J. Phys.:Condens. Matter 29 465901 (2017);
         "P. Giannozzi et al., J. Chem. Phys. 152 154105 (2020);
          URL http://www.quantum-espresso.org", 
     in publications or presentations arising from this work. More details at
     http://www.quantum-espresso.org/quote

     Parallel version (MPI & OpenMP), running on       4 processor cores
     Number of MPI processes:                 4
     Threads/MPI process:                     1

     MPI processes distributed on     1 nodes
     13948 MiB available memory on the printing compute node when the environment starts

     Reading input from mgo.qc.in

     Current dimensions of program PWSCF are:
     Max number of different atomic species (ntypx) = 10
     Max number of k-points (npk) =  40000
     Max angular momentum in pseudopotentials (lmaxx) =  4

     IMPORTANT: XC functional enforced from input :
     Exchange-correlation= HSE
                           (   1   4  12   4   0   0   0)
     EXX-fraction              =        0.25
     Any further DFT definition will be discarded
     Please, verify this is what you really want

     EXX Screening parameter changed:    0.7258000
     EXX fraction changed:   1.00
     DD-RSH-CAM (LMODELHF) semilocal: AEXX, BEXX =   0.3235  0.5065
     DD-RSH-CAM (LMODELHF) enabled
     AEXX =  0.3235   BEXX =  0.5065   mu(bohr^-1) =  0.7258

     R & G space division:  proc/nbgrp/npool/nimage =       4
     Subspace diagonalization in iterative solution of the eigenvalue problem:
     a serial algorithm will be used

     EXX: q-point mesh:     6    6    6
     EXX: setup a grid of 216 q-points centered on each k-point
     (k+q)-points:
   0.0000000   0.0000000   0.0000000         1    1
  -0.1666667   0.1666667  -0.1666667         2    1
  -0.3333333   0.3333333  -0.3333333         3    1
   0.5000000  -0.5000000   0.5000000         4    1
   0.3333333  -0.3333333   0.3333333         3   -1
   0.1666667  -0.1666667   0.1666667         2   -1
   0.1666667   0.1666667   0.1666667         2    3
   0.0000000   0.3333333   0.0000000         5    1
  -0.1666667   0.5000000  -0.1666667         6    1
   0.6666667  -0.3333333   0.6666667         7    1
   0.5000000  -0.1666667   0.5000000         8    1
   0.3333333   0.0000000   0.3333333         9    1
   0.3333333   0.3333333   0.3333333         3    3
   0.1666667   0.5000000   0.1666667         6    3
   0.0000000   0.6666667   0.0000000        10    1
   0.8333333  -0.1666667   0.8333333        11    1
   0.6666667   0.0000000   0.6666667        12    1
   0.5000000   0.1666667   0.5000000         8   -3
  -0.5000000  -0.5000000  -0.5000000         4    3
  -0.6666667  -0.3333333  -0.6666667         7    3
  -0.8333333  -0.1666667  -0.8333333        11    3
   0.0000000  -1.0000000   0.0000000        13    1
   0.8333333   0.1666667   0.8333333        11   -3
   0.6666667   0.3333333   0.6666667         7   -3
  -0.3333333  -0.3333333  -0.3333333         3   -3
  -0.5000000  -0.1666667  -0.5000000         8    3
  -0.6666667   0.0000000  -0.6666667        12   -1
  -0.8333333   0.1666667  -0.8333333        11   -1
   0.0000000  -0.6666667   0.0000000        10   -1
  -0.1666667  -0.5000000  -0.1666667         6   -3
  -0.1666667  -0.1666667  -0.1666667         2   -3
  -0.3333333   0.0000000  -0.3333333         9   -1
  -0.5000000   0.1666667  -0.5000000         8   -1
  -0.6666667   0.3333333  -0.6666667         7   -1
   0.1666667  -0.5000000   0.1666667         6   -1
   0.0000000  -0.3333333   0.0000000         5   -1
  -0.1666667  -0.1666667   0.1666667         2    4
  -0.3333333   0.0000000   0.0000000         5   -5
  -0.5000000   0.1666667  -0.1666667         6   -5
   0.3333333  -0.6666667   0.6666667         7   -5
   0.1666667  -0.5000000   0.5000000         8   -5
   0.0000000  -0.3333333   0.3333333         9   -5
   0.0000000   0.0000000   0.3333333         5   13
  -0.1666667   0.1666667   0.1666667         2   -2
  -0.3333333   0.3333333   0.0000000         9   13
  -0.5000000   0.5000000  -0.1666667         8   13
  -0.6666667   0.6666667  -0.3333333         7   13
   0.1666667  -0.1666667   0.5000000         6   13
   0.1666667   0.1666667   0.5000000         6  -16
   0.0000000   0.3333333   0.3333333         9   -6
  -0.1666667   0.5000000   0.1666667         6   -2
   0.6666667  -0.3333333   1.0000000        14    1
   0.5000000  -0.1666667   0.8333333        15    1
  -0.6666667   1.0000000  -0.3333333        14   13
  -0.6666667  -0.6666667  -0.3333333         7  -16
   0.1666667   0.5000000   0.5000000         8    7
  -1.0000000  -0.3333333  -0.6666667        14   -9
   0.8333333  -0.1666667  -0.8333333        11   -2
  -0.3333333  -1.0000000   0.0000000        16    1
   0.5000000   0.1666667   0.8333333        15   -3
  -0.5000000  -0.5000000  -0.1666667         8  -16
   0.3333333   0.6666667   0.6666667         7    7
  -0.8333333  -0.1666667  -0.5000000        15   -9
   0.0000000  -1.0000000   0.3333333        16   -9
   0.8333333   0.1666667  -0.8333333        11    4
   0.6666667   0.3333333   1.0000000        14   -3
  -0.3333333  -0.3333333   0.0000000         9   14
  -0.5000000  -0.1666667  -0.1666667         6    7
   0.3333333  -1.0000000   0.6666667        14   22
  -0.8333333   0.1666667  -0.5000000        15   10
  -1.0000000   0.3333333  -0.6666667        14   10
  -0.1666667  -0.5000000   0.1666667         6    4
  -0.3333333  -0.3333333   0.3333333         3    4
  -0.5000000  -0.1666667   0.1666667         6   -8
  -0.6666667   0.0000000   0.0000000        10   -5
   0.1666667  -0.8333333   0.8333333        11   -5
   0.0000000  -0.6666667   0.6666667        12   -5
  -0.1666667  -0.5000000   0.5000000         8    8
  -0.1666667  -0.1666667   0.5000000         6  -14
  -0.3333333   0.0000000   0.3333333         9    2
  -0.5000000   0.1666667   0.1666667         6    6
   0.3333333  -0.6666667   1.0000000        14   -5
   0.1666667  -0.5000000   0.8333333        15   -5
   1.0000000   0.6666667  -0.3333333        14   17
   0.0000000   0.0000000   0.6666667        10   13
  -0.1666667   0.1666667   0.5000000         6   15
  -0.3333333   0.3333333   0.3333333         3   -2
  -0.5000000   0.5000000   0.1666667         8  -15
  -0.6666667   0.6666667   0.0000000        12   13
  -0.8333333   0.8333333  -0.1666667        11   13
  -0.8333333  -0.8333333  -0.1666667        11  -16
  -1.0000000  -0.6666667  -0.3333333        14   18
  -0.1666667   0.5000000   0.5000000         8   -6
   0.6666667  -0.3333333  -0.6666667         7   -2
   0.5000000  -0.1666667  -0.8333333        15   -2
   0.3333333   0.0000000  -1.0000000        16   13
  -0.6666667  -0.6666667   0.0000000        12   14
   0.1666667   0.5000000   0.8333333        15    7
   0.0000000   0.6666667   0.6666667        12   -6
   0.8333333  -0.1666667  -0.5000000        15   12
   0.6666667   0.0000000  -0.6666667        12   -2
   0.5000000   0.1666667  -0.8333333        15    4
  -0.5000000  -0.5000000   0.1666667         8   14
   0.3333333   0.6666667   1.0000000        14    7
   0.1666667   0.8333333   0.8333333        11    7
  -1.0000000   0.0000000  -0.3333333        16   21
   0.8333333   0.1666667  -0.5000000        15  -11
   0.6666667   0.3333333  -0.6666667         7    4
   0.5000000   0.5000000  -0.5000000         4    4
   0.3333333   0.6666667  -0.6666667         7   -8
   0.1666667   0.8333333  -0.8333333        11   -8
  -1.0000000   0.0000000   0.0000000        13    5
  -0.1666667  -0.8333333   0.8333333        11    8
  -0.3333333  -0.6666667   0.6666667         7    8
   0.6666667   0.6666667  -0.3333333         7  -14
  -0.5000000  -0.1666667   0.5000000         8   -4
   0.3333333  -1.0000000  -0.6666667        14  -21
   0.1666667  -0.8333333  -0.8333333        11    6
   1.0000000   0.3333333   0.0000000        16   -5
  -0.1666667  -0.5000000   0.8333333        15    8
   0.8333333   0.8333333  -0.1666667        11  -14
   0.6666667   1.0000000  -0.3333333        14  -14
  -0.5000000   0.1666667   0.5000000         8    2
   0.3333333  -0.6666667  -0.6666667         7    6
   0.1666667  -0.5000000  -0.8333333        15    6
   0.0000000  -0.3333333  -1.0000000        16   17
   0.0000000   0.0000000  -1.0000000        13   13
   0.8333333  -0.8333333  -0.1666667        11   15
   0.6666667  -0.6666667  -0.3333333         7   15
  -0.5000000   0.5000000   0.5000000         4    2
  -0.6666667   0.6666667   0.3333333         7  -15
  -0.8333333   0.8333333   0.1666667        11  -15
  -0.8333333  -0.8333333   0.1666667        11   14
   0.0000000   0.3333333   1.0000000        16  -17
  -0.1666667   0.5000000   0.8333333        15   -6
  -0.3333333   0.6666667   0.6666667         7   -6
   0.5000000  -0.1666667  -0.5000000         8   -2
  -0.6666667  -1.0000000   0.3333333        14   14
  -0.6666667  -0.6666667   0.3333333         7   14
   0.1666667   0.5000000  -0.8333333        15   -8
  -1.0000000  -0.3333333   0.0000000        16    5
  -0.1666667   0.8333333   0.8333333        11   -6
  -0.3333333   1.0000000   0.6666667        14   21
   0.5000000   0.1666667  -0.5000000         8    4
   0.3333333   0.3333333  -0.3333333         3   -4
   0.1666667   0.5000000  -0.5000000         8   -8
   0.0000000   0.6666667  -0.6666667        12    5
  -0.1666667   0.8333333  -0.8333333        11    5
   0.6666667   0.0000000   0.0000000        10    5
   0.5000000   0.1666667  -0.1666667         6    8
   0.5000000   0.5000000  -0.1666667         8  -14
  -0.6666667  -0.3333333   0.6666667         7   -4
  -0.8333333  -0.1666667   0.5000000        15   11
   1.0000000   0.0000000   0.3333333        16  -21
  -0.1666667  -0.8333333  -0.8333333        11   -7
  -0.3333333  -0.6666667  -1.0000000        14   -7
   0.6666667   0.6666667   0.0000000        12  -14
  -0.5000000  -0.1666667   0.8333333        15   -4
  -0.6666667   0.0000000   0.6666667        12    2
  -0.8333333   0.1666667   0.5000000        15  -12
   0.0000000  -0.6666667  -0.6666667        12    6
  -0.1666667  -0.5000000  -0.8333333        15   -7
   0.8333333   0.8333333   0.1666667        11   16
  -0.3333333   0.0000000   1.0000000        16  -13
  -0.5000000   0.1666667   0.8333333        15    2
  -0.6666667   0.3333333   0.6666667         7    2
   0.1666667  -0.5000000  -0.5000000         8    6
   1.0000000   0.6666667   0.3333333        14  -18
   0.0000000   0.0000000  -0.6666667        10  -13
   0.8333333  -0.8333333   0.1666667        11  -13
   0.6666667  -0.6666667   0.0000000        12  -13
   0.5000000  -0.5000000  -0.1666667         8   15
   0.3333333  -0.3333333  -0.3333333         3    2
   0.1666667  -0.1666667  -0.5000000         6  -15
   0.1666667   0.1666667  -0.5000000         6   14
  -1.0000000  -0.6666667   0.3333333        14  -17
  -0.1666667   0.5000000  -0.8333333        15    5
  -0.3333333   0.6666667  -1.0000000        14    5
   0.5000000  -0.1666667  -0.1666667         6   -6
   0.3333333   0.0000000  -0.3333333         9   -2
   0.1666667   0.1666667  -0.1666667         2   -4
   0.0000000   0.3333333  -0.3333333         9    5
  -0.1666667   0.5000000  -0.5000000         8    5
  -0.3333333   0.6666667  -0.6666667         7    5
   0.5000000  -0.1666667   0.1666667         6    5
   0.3333333   0.0000000   0.0000000         5    5
   0.3333333   0.3333333   0.0000000         9  -14
   0.1666667   0.5000000  -0.1666667         6   -4
   1.0000000  -0.3333333   0.6666667        14  -10
   0.8333333  -0.1666667   0.5000000        15  -10
  -0.3333333   1.0000000  -0.6666667        14  -22
   0.5000000   0.1666667   0.1666667         6   -7
   0.5000000   0.5000000   0.1666667         8   16
  -0.6666667  -0.3333333  -1.0000000        14    3
  -0.8333333  -0.1666667   0.8333333        11   -4
   0.0000000   1.0000000  -0.3333333        16    9
   0.8333333   0.1666667   0.5000000        15    9
  -0.3333333  -0.6666667  -0.6666667         7   -7
   0.6666667   0.6666667   0.3333333         7   16
  -0.5000000  -0.1666667  -0.8333333        15    3
   0.3333333   1.0000000   0.0000000        16   -1
  -0.8333333   0.1666667   0.8333333        11    2
   1.0000000   0.3333333   0.6666667        14    9
  -0.1666667  -0.5000000  -0.5000000         8   -7
  -0.1666667  -0.1666667  -0.5000000         6   16
   0.6666667  -1.0000000   0.3333333        14  -13
  -0.5000000   0.1666667  -0.8333333        15   -1
  -0.6666667   0.3333333  -1.0000000        14   -1
   0.1666667  -0.5000000  -0.1666667         6    2
   0.0000000  -0.3333333  -0.3333333         9    6
   0.0000000   0.0000000  -0.3333333         5  -13
  -0.1666667   0.1666667  -0.5000000         6  -13
   0.6666667  -0.6666667   0.3333333         7  -13
   0.5000000  -0.5000000   0.1666667         8  -13
   0.3333333  -0.3333333   0.0000000         9  -13
   0.1666667  -0.1666667  -0.1666667         2    2

     Parallelization info
     --------------------
     sticks:   dense  smooth     PW     G-vecs:    dense   smooth      PW
     Min         171     171     52                 3009     3009     520
     Max         172     172     53                 3011     3011     522
     Sum         685     685    211                12039    12039    2085

     Using Slab Decomposition



     bravais-lattice index     =            2
     lattice parameter (alat)  =       7.9104  a.u.
     unit-cell volume          =     123.7472 (a.u.)^3
     number of atoms/cell      =            2
     number of atomic types    =            2
     number of electrons       =        16.00
     number of Kohn-Sham states=           16
     kinetic-energy cutoff     =      80.0000  Ry
     charge density cutoff     =     320.0000  Ry
     cutoff for Fock operator  =     320.0000  Ry
     scf convergence threshold =      1.0E-08
     mixing beta               =       0.7000
     number of iterations used =            8  plain     mixing
     Exchange-correlation= HSE
                           (   1   4  12   4   0   0   0)
     EXX-fraction              =        1.00

     celldm(1)=   7.910400  celldm(2)=   0.000000  celldm(3)=   0.000000
     celldm(4)=   0.000000  celldm(5)=   0.000000  celldm(6)=   0.000000

     crystal axes: (cart. coord. in units of alat)
               a(1) = (  -0.500000   0.000000   0.500000 )  
               a(2) = (   0.000000   0.500000   0.500000 )  
               a(3) = (  -0.500000   0.500000   0.000000 )  

     reciprocal axes: (cart. coord. in units 2 pi/alat)
               b(1) = ( -1.000000 -1.000000  1.000000 )  
               b(2) = (  1.000000  1.000000  1.000000 )  
               b(3) = ( -1.000000  1.000000 -1.000000 )  


     PseudoPot. # 1 for Mg read from file:
     ../../../../pseudos/Mg_ONCV_PBE-1.2.upf
     MD5 check sum: 330956729b1f868fdecd9f5113f6a961
     Pseudo is Norm-conserving, Zval = 10.0
     Generated using ONCVPSP code by D. R. Hamann
     Using radial grid of  602 points,  4 beta functions with: 
                l(1) =   0
                l(2) =   0
                l(3) =   1
                l(4) =   1

     PseudoPot. # 2 for O  read from file:
     ../../../../pseudos/O_ONCV_PBE-1.2.upf
     MD5 check sum: e36c48deb68f4e355fffe4602be2c42c
     Pseudo is Norm-conserving, Zval =  6.0
     Generated using ONCVPSP code by D. R. Hamann
     Using radial grid of  602 points,  4 beta functions with: 
                l(1) =   0
                l(2) =   0
                l(3) =   1
                l(4) =   1

     atomic species   valence    mass     pseudopotential
     Mg               10.00    24.30500     Mg( 1.00)
     O                 6.00    15.99900     O ( 1.00)

     48 Sym. Ops., with inversion, found


                                    s                        frac. trans.

      isym =  1     identity                                     

 cryst.   s( 1) = (     1          0          0      )
                  (     0          1          0      )
                  (     0          0          1      )

 cart.    s( 1) = (  1.0000000  0.0000000  0.0000000 )
                  (  0.0000000  1.0000000  0.0000000 )
                  (  0.0000000  0.0000000  1.0000000 )


      isym =  2     180 deg rotation - cart. axis [0,0,1]        

 cryst.   s( 2) = (     0          1         -1      )
                  (     1          0         -1      )
                  (     0          0         -1      )

 cart.    s( 2) = ( -1.0000000  0.0000000  0.0000000 )
                  (  0.0000000 -1.0000000  0.0000000 )
                  (  0.0000000  0.0000000  1.0000000 )


      isym =  3     180 deg rotation - cart. axis [0,1,0]        

 cryst.   s( 3) = (    -1          0          0      )
                  (    -1          0          1      )
                  (    -1          1          0      )

 cart.    s( 3) = ( -1.0000000  0.0000000  0.0000000 )
                  (  0.0000000  1.0000000  0.0000000 )
                  (  0.0000000  0.0000000 -1.0000000 )


      isym =  4     180 deg rotation - cart. axis [1,0,0]        

 cryst.   s( 4) = (     0         -1          1      )
                  (     0         -1          0      )
                  (     1         -1          0      )

 cart.    s( 4) = (  1.0000000  0.0000000  0.0000000 )
                  (  0.0000000 -1.0000000  0.0000000 )
                  (  0.0000000  0.0000000 -1.0000000 )


      isym =  5     180 deg rotation - cart. axis [1,1,0]        

 cryst.   s( 5) = (     0         -1          0      )
                  (    -1          0          0      )
                  (     0          0         -1      )

 cart.    s( 5) = (  0.0000000  1.0000000  0.0000000 )
                  (  1.0000000  0.0000000  0.0000000 )
                  (  0.0000000  0.0000000 -1.0000000 )


      isym =  6     180 deg rotation - cart. axis [1,-1,0]       

 cryst.   s( 6) = (    -1          0          1      )
                  (     0         -1          1      )
                  (     0          0          1      )

 cart.    s( 6) = (  0.0000000 -1.0000000  0.0000000 )
                  ( -1.0000000  0.0000000  0.0000000 )
                  (  0.0000000  0.0000000 -1.0000000 )


      isym =  7      90 deg rotation - cart. axis [0,0,-1]       

 cryst.   s( 7) = (     0          1          0      )
                  (     0          1         -1      )
                  (    -1          1          0      )

 cart.    s( 7) = (  0.0000000  1.0000000  0.0000000 )
                  ( -1.0000000  0.0000000  0.0000000 )
                  (  0.0000000  0.0000000  1.0000000 )


      isym =  8      90 deg rotation - cart. axis [0,0,1]        

 cryst.   s( 8) = (     1          0         -1      )
                  (     1          0          0      )
                  (     1         -1          0      )

 cart.    s( 8) = (  0.0000000 -1.0000000  0.0000000 )
                  (  1.0000000  0.0000000  0.0000000 )
                  (  0.0000000  0.0000000  1.0000000 )


      isym =  9     180 deg rotation - cart. axis [1,0,1]        

 cryst.   s( 9) = (    -1          0          0      )
                  (     0          0         -1      )
                  (     0         -1          0      )

 cart.    s( 9) = (  0.0000000  0.0000000  1.0000000 )
                  (  0.0000000 -1.0000000  0.0000000 )
                  (  1.0000000  0.0000000  0.0000000 )


      isym = 10     180 deg rotation - cart. axis [-1,0,1]       

 cryst.   s(10) = (     1          0          0      )
                  (     1         -1          0      )
                  (     1          0         -1      )

 cart.    s(10) = (  0.0000000  0.0000000 -1.0000000 )
                  (  0.0000000 -1.0000000  0.0000000 )
                  ( -1.0000000  0.0000000  0.0000000 )


      isym = 11      90 deg rotation - cart. axis [0,1,0]        

 cryst.   s(11) = (     0          1         -1      )
                  (    -1          1          0      )
                  (     0          1          0      )

 cart.    s(11) = (  0.0000000  0.0000000  1.0000000 )
                  (  0.0000000  1.0000000  0.0000000 )
                  ( -1.0000000  0.0000000  0.0000000 )


      isym = 12      90 deg rotation - cart. axis [0,-1,0]       

 cryst.   s(12) = (     0         -1          1      )
                  (     0          0          1      )
                  (    -1          0          1      )

 cart.    s(12) = (  0.0000000  0.0000000 -1.0000000 )
                  (  0.0000000  1.0000000  0.0000000 )
                  (  1.0000000  0.0000000  0.0000000 )


      isym = 13     180 deg rotation - cart. axis [0,1,1]        

 cryst.   s(13) = (    -1          1          0      )
                  (     0          1          0      )
                  (     0          1         -1      )

 cart.    s(13) = ( -1.0000000  0.0000000  0.0000000 )
                  (  0.0000000  0.0000000  1.0000000 )
                  (  0.0000000  1.0000000  0.0000000 )


      isym = 14     180 deg rotation - cart. axis [0,1,-1]       

 cryst.   s(14) = (     0          0         -1      )
                  (     0         -1          0      )
                  (    -1          0          0      )

 cart.    s(14) = ( -1.0000000  0.0000000  0.0000000 )
                  (  0.0000000  0.0000000 -1.0000000 )
                  (  0.0000000 -1.0000000  0.0000000 )


      isym = 15      90 deg rotation - cart. axis [-1,0,0]       

 cryst.   s(15) = (     0          0          1      )
                  (    -1          0          1      )
                  (     0         -1          1      )

 cart.    s(15) = (  1.0000000  0.0000000  0.0000000 )
                  (  0.0000000  0.0000000  1.0000000 )
                  (  0.0000000 -1.0000000  0.0000000 )


      isym = 16      90 deg rotation - cart. axis [1,0,0]        

 cryst.   s(16) = (     1         -1          0      )
                  (     1          0         -1      )
                  (     1          0          0      )

 cart.    s(16) = (  1.0000000  0.0000000  0.0000000 )
                  (  0.0000000  0.0000000 -1.0000000 )
                  (  0.0000000  1.0000000  0.0000000 )


      isym = 17     120 deg rotation - cart. axis [-1,-1,-1]     

 cryst.   s(17) = (    -1          0          1      )
                  (    -1          1          0      )
                  (    -1          0          0      )

 cart.    s(17) = (  0.0000000  1.0000000  0.0000000 )
                  (  0.0000000  0.0000000  1.0000000 )
                  (  1.0000000  0.0000000  0.0000000 )


      isym = 18     120 deg rotation - cart. axis [-1,1,1]       

 cryst.   s(18) = (     0          1          0      )
                  (     0          0          1      )
                  (     1          0          0      )

 cart.    s(18) = (  0.0000000 -1.0000000  0.0000000 )
                  (  0.0000000  0.0000000  1.0000000 )
                  ( -1.0000000  0.0000000  0.0000000 )


      isym = 19     120 deg rotation - cart. axis [1,1,-1]       

 cryst.   s(19) = (     1          0         -1      )
                  (     0          0         -1      )
                  (     0          1         -1      )

 cart.    s(19) = (  0.0000000  1.0000000  0.0000000 )
                  (  0.0000000  0.0000000 -1.0000000 )
                  ( -1.0000000  0.0000000  0.0000000 )


      isym = 20     120 deg rotation - cart. axis [1,-1,1]       

 cryst.   s(20) = (     0         -1          0      )
                  (     1         -1          0      )
                  (     0         -1          1      )

 cart.    s(20) = (  0.0000000 -1.0000000  0.0000000 )
                  (  0.0000000  0.0000000 -1.0000000 )
                  (  1.0000000  0.0000000  0.0000000 )


      isym = 21     120 deg rotation - cart. axis [1,1,1]        

 cryst.   s(21) = (     0          0         -1      )
                  (     0          1         -1      )
                  (     1          0         -1      )

 cart.    s(21) = (  0.0000000  0.0000000  1.0000000 )
                  (  1.0000000  0.0000000  0.0000000 )
                  (  0.0000000  1.0000000  0.0000000 )


      isym = 22     120 deg rotation - cart. axis [-1,1,-1]      

 cryst.   s(22) = (    -1          1          0      )
                  (    -1          0          0      )
                  (    -1          0          1      )

 cart.    s(22) = (  0.0000000  0.0000000  1.0000000 )
                  ( -1.0000000  0.0000000  0.0000000 )
                  (  0.0000000 -1.0000000  0.0000000 )


      isym = 23     120 deg rotation - cart. axis [1,-1,-1]      

 cryst.   s(23) = (     0          0          1      )
                  (     1          0          0      )
                  (     0          1          0      )

 cart.    s(23) = (  0.0000000  0.0000000 -1.0000000 )
                  ( -1.0000000  0.0000000  0.0000000 )
                  (  0.0000000  1.0000000  0.0000000 )


      isym = 24     120 deg rotation - cart. axis [-1,-1,1]      

 cryst.   s(24) = (     1         -1          0      )
                  (     0         -1          1      )
                  (     0         -1          0      )

 cart.    s(24) = (  0.0000000  0.0000000 -1.0000000 )
                  (  1.0000000  0.0000000  0.0000000 )
                  (  0.0000000 -1.0000000  0.0000000 )


      isym = 25     inversion                                    

 cryst.   s(25) = (    -1          0          0      )
                  (     0         -1          0      )
                  (     0          0         -1      )

 cart.    s(25) = ( -1.0000000  0.0000000  0.0000000 )
                  (  0.0000000 -1.0000000  0.0000000 )
                  (  0.0000000  0.0000000 -1.0000000 )


      isym = 26     inv. 180 deg rotation - cart. axis [0,0,1]   

 cryst.   s(26) = (     0         -1          1      )
                  (    -1          0          1      )
                  (     0          0          1      )

 cart.    s(26) = (  1.0000000  0.0000000  0.0000000 )
                  (  0.0000000  1.0000000  0.0000000 )
                  (  0.0000000  0.0000000 -1.0000000 )


      isym = 27     inv. 180 deg rotation - cart. axis [0,1,0]   

 cryst.   s(27) = (     1          0          0      )
                  (     1          0         -1      )
                  (     1         -1          0      )

 cart.    s(27) = (  1.0000000  0.0000000  0.0000000 )
                  (  0.0000000 -1.0000000  0.0000000 )
                  (  0.0000000  0.0000000  1.0000000 )


      isym = 28     inv. 180 deg rotation - cart. axis [1,0,0]   

 cryst.   s(28) = (     0          1         -1      )
                  (     0          1          0      )
                  (    -1          1          0      )

 cart.    s(28) = ( -1.0000000  0.0000000  0.0000000 )
                  (  0.0000000  1.0000000  0.0000000 )
                  (  0.0000000  0.0000000  1.0000000 )


      isym = 29     inv. 180 deg rotation - cart. axis [1,1,0]   

 cryst.   s(29) = (     0          1          0      )
                  (     1          0          0      )
                  (     0          0          1      )

 cart.    s(29) = (  0.0000000 -1.0000000  0.0000000 )
                  ( -1.0000000  0.0000000  0.0000000 )
                  (  0.0000000  0.0000000  1.0000000 )


      isym = 30     inv. 180 deg rotation - cart. axis [1,-1,0]  

 cryst.   s(30) = (     1          0         -1      )
                  (     0          1         -1      )
                  (     0          0         -1      )

 cart.    s(30) = (  0.0000000  1.0000000  0.0000000 )
                  (  1.0000000  0.0000000  0.0000000 )
                  (  0.0000000  0.0000000  1.0000000 )


      isym = 31     inv.  90 deg rotation - cart. axis [0,0,-1]  

 cryst.   s(31) = (     0         -1          0      )
                  (     0         -1          1      )
                  (     1         -1          0      )

 cart.    s(31) = (  0.0000000 -1.0000000  0.0000000 )
                  (  1.0000000  0.0000000  0.0000000 )
                  (  0.0000000  0.0000000 -1.0000000 )


      isym = 32     inv.  90 deg rotation - cart. axis [0,0,1]   

 cryst.   s(32) = (    -1          0          1      )
                  (    -1          0          0      )
                  (    -1          1          0      )

 cart.    s(32) = (  0.0000000  1.0000000  0.0000000 )
                  ( -1.0000000  0.0000000  0.0000000 )
                  (  0.0000000  0.0000000 -1.0000000 )


      isym = 33     inv. 180 deg rotation - cart. axis [1,0,1]   

 cryst.   s(33) = (     1          0          0      )
                  (     0          0          1      )
                  (     0          1          0      )

 cart.    s(33) = (  0.0000000  0.0000000 -1.0000000 )
                  (  0.0000000  1.0000000  0.0000000 )
                  ( -1.0000000  0.0000000  0.0000000 )


      isym = 34     inv. 180 deg rotation - cart. axis [-1,0,1]  

 cryst.   s(34) = (    -1          0          0      )
                  (    -1          1          0      )
                  (    -1          0          1      )

 cart.    s(34) = (  0.0000000  0.0000000  1.0000000 )
                  (  0.0000000  1.0000000  0.0000000 )
                  (  1.0000000  0.0000000  0.0000000 )


      isym = 35     inv.  90 deg rotation - cart. axis [0,1,0]   

 cryst.   s(35) = (     0         -1          1      )
                  (     1         -1          0      )
                  (     0         -1          0      )

 cart.    s(35) = (  0.0000000  0.0000000 -1.0000000 )
                  (  0.0000000 -1.0000000  0.0000000 )
                  (  1.0000000  0.0000000  0.0000000 )


      isym = 36     inv.  90 deg rotation - cart. axis [0,-1,0]  

 cryst.   s(36) = (     0          1         -1      )
                  (     0          0         -1      )
                  (     1          0         -1      )

 cart.    s(36) = (  0.0000000  0.0000000  1.0000000 )
                  (  0.0000000 -1.0000000  0.0000000 )
                  ( -1.0000000  0.0000000  0.0000000 )


      isym = 37     inv. 180 deg rotation - cart. axis [0,1,1]   

 cryst.   s(37) = (     1         -1          0      )
                  (     0         -1          0      )
                  (     0         -1          1      )

 cart.    s(37) = (  1.0000000  0.0000000  0.0000000 )
                  (  0.0000000  0.0000000 -1.0000000 )
                  (  0.0000000 -1.0000000  0.0000000 )


      isym = 38     inv. 180 deg rotation - cart. axis [0,1,-1]  

 cryst.   s(38) = (     0          0          1      )
                  (     0          1          0      )
                  (     1          0          0      )

 cart.    s(38) = (  1.0000000  0.0000000  0.0000000 )
                  (  0.0000000  0.0000000  1.0000000 )
                  (  0.0000000  1.0000000  0.0000000 )


      isym = 39     inv.  90 deg rotation - cart. axis [-1,0,0]  

 cryst.   s(39) = (     0          0         -1      )
                  (     1          0         -1      )
                  (     0          1         -1      )

 cart.    s(39) = ( -1.0000000  0.0000000  0.0000000 )
                  (  0.0000000  0.0000000 -1.0000000 )
                  (  0.0000000  1.0000000  0.0000000 )


      isym = 40     inv.  90 deg rotation - cart. axis [1,0,0]   

 cryst.   s(40) = (    -1          1          0      )
                  (    -1          0          1      )
                  (    -1          0          0      )

 cart.    s(40) = ( -1.0000000  0.0000000  0.0000000 )
                  (  0.0000000  0.0000000  1.0000000 )
                  (  0.0000000 -1.0000000  0.0000000 )


      isym = 41     inv. 120 deg rotation - cart. axis [-1,-1,-1]

 cryst.   s(41) = (     1          0         -1      )
                  (     1         -1          0      )
                  (     1          0          0      )

 cart.    s(41) = (  0.0000000 -1.0000000  0.0000000 )
                  (  0.0000000  0.0000000 -1.0000000 )
                  ( -1.0000000  0.0000000  0.0000000 )


      isym = 42     inv. 120 deg rotation - cart. axis [-1,1,1]  

 cryst.   s(42) = (     0         -1          0      )
                  (     0          0         -1      )
                  (    -1          0          0      )

 cart.    s(42) = (  0.0000000  1.0000000  0.0000000 )
                  (  0.0000000  0.0000000 -1.0000000 )
                  (  1.0000000  0.0000000  0.0000000 )


      isym = 43     inv. 120 deg rotation - cart. axis [1,1,-1]  

 cryst.   s(43) = (    -1          0          1      )
                  (     0          0          1      )
                  (     0         -1          1      )

 cart.    s(43) = (  0.0000000 -1.0000000  0.0000000 )
                  (  0.0000000  0.0000000  1.0000000 )
                  (  1.0000000  0.0000000  0.0000000 )


      isym = 44     inv. 120 deg rotation - cart. axis [1,-1,1]  

 cryst.   s(44) = (     0          1          0      )
                  (    -1          1          0      )
                  (     0          1         -1      )

 cart.    s(44) = (  0.0000000  1.0000000  0.0000000 )
                  (  0.0000000  0.0000000  1.0000000 )
                  ( -1.0000000  0.0000000  0.0000000 )


      isym = 45     inv. 120 deg rotation - cart. axis [1,1,1]   

 cryst.   s(45) = (     0          0          1      )
                  (     0         -1          1      )
                  (    -1          0          1      )

 cart.    s(45) = (  0.0000000  0.0000000 -1.0000000 )
                  ( -1.0000000  0.0000000  0.0000000 )
                  (  0.0000000 -1.0000000  0.0000000 )


      isym = 46     inv. 120 deg rotation - cart. axis [-1,1,-1] 

 cryst.   s(46) = (     1         -1          0      )
                  (     1          0          0      )
                  (     1          0         -1      )

 cart.    s(46) = (  0.0000000  0.0000000 -1.0000000 )
                  (  1.0000000  0.0000000  0.0000000 )
                  (  0.0000000  1.0000000  0.0000000 )


      isym = 47     inv. 120 deg rotation - cart. axis [1,-1,-1] 

 cryst.   s(47) = (     0          0         -1      )
                  (    -1          0          0      )
                  (     0         -1          0      )

 cart.    s(47) = (  0.0000000  0.0000000  1.0000000 )
                  (  1.0000000  0.0000000  0.0000000 )
                  (  0.0000000 -1.0000000  0.0000000 )


      isym = 48     inv. 120 deg rotation - cart. axis [-1,-1,1] 

 cryst.   s(48) = (    -1          1          0      )
                  (     0          1         -1      )
                  (     0          1          0      )

 cart.    s(48) = (  0.0000000  0.0000000  1.0000000 )
                  ( -1.0000000  0.0000000  0.0000000 )
                  (  0.0000000  1.0000000  0.0000000 )


     point group O_h (m-3m) 
     there are 10 classes
     the character table:

       E     8C3   3C2   6C4   6C2'  i     8S6   3s_h  6S4   6s_d 
A_1g   1.00  1.00  1.00  1.00  1.00  1.00  1.00  1.00  1.00  1.00
A_2g   1.00  1.00  1.00 -1.00 -1.00  1.00  1.00  1.00 -1.00 -1.00
E_g    2.00 -1.00  2.00  0.00  0.00  2.00 -1.00  2.00  0.00  0.00
T_1g   3.00  0.00 -1.00  1.00 -1.00  3.00  0.00 -1.00  1.00 -1.00
T_2g   3.00  0.00 -1.00 -1.00  1.00  3.00  0.00 -1.00 -1.00  1.00
A_1u   1.00  1.00  1.00  1.00  1.00 -1.00 -1.00 -1.00 -1.00 -1.00
A_2u   1.00  1.00  1.00 -1.00 -1.00 -1.00 -1.00 -1.00  1.00  1.00
E_u    2.00 -1.00  2.00  0.00  0.00 -2.00  1.00 -2.00  0.00  0.00
T_1u   3.00  0.00 -1.00  1.00 -1.00 -3.00  0.00  1.00 -1.00  1.00
T_2u   3.00  0.00 -1.00 -1.00  1.00 -3.00  0.00  1.00  1.00 -1.00

     the symmetry operations in each class and the name of the first element:

     E        1
          identity                                               
     8C3     17   19   20   18   24   21   22   23
          120 deg rotation - cart. axis [-1,-1,-1]               
     3C2      2    4    3
          180 deg rotation - cart. axis [0,0,1]                  
     6C4      7    8   15   16   12   11
           90 deg rotation - cart. axis [0,0,-1]                 
     6C2'     5    6   14   13   10    9
          180 deg rotation - cart. axis [1,1,0]                  
     i       25
          inversion                                              
     8S6     41   43   44   42   48   45   46   47
          inv. 120 deg rotation - cart. axis [-1,-1,-1]          
     3s_h    26   28   27
          inv. 180 deg rotation - cart. axis [0,0,1]             
     6S4     31   32   39   40   36   35
          inv.  90 deg rotation - cart. axis [0,0,-1]            
     6s_d    29   30   38   37   34   33
          inv. 180 deg rotation - cart. axis [1,1,0]             

   Cartesian axes

     site n.     atom                  positions (alat units)
         1        Mg     tau(   1) = (   0.0000000   0.0000000   0.0000000  )
         2        O      tau(   2) = (  -0.5000000   0.5000000   0.5000000  )

   Crystallographic axes

     site n.     atom                  positions (cryst. coord.)
         1        Mg     tau(   1) = (  0.0000000  0.0000000  0.0000000  )
         2        O      tau(   2) = (  0.5000000  0.5000000  0.5000000  )

     number of k points=    16
                       cart. coord. in units 2pi/alat
        k(    1) = (   0.0000000   0.0000000   0.0000000), wk =   0.0092593
        k(    2) = (  -0.1666667   0.1666667  -0.1666667), wk =   0.0740741
        k(    3) = (  -0.3333333   0.3333333  -0.3333333), wk =   0.0740741
        k(    4) = (   0.5000000  -0.5000000   0.5000000), wk =   0.0370370
        k(    5) = (   0.0000000   0.3333333   0.0000000), wk =   0.0555556
        k(    6) = (  -0.1666667   0.5000000  -0.1666667), wk =   0.2222222
        k(    7) = (   0.6666667  -0.3333333   0.6666667), wk =   0.2222222
        k(    8) = (   0.5000000  -0.1666667   0.5000000), wk =   0.2222222
        k(    9) = (   0.3333333   0.0000000   0.3333333), wk =   0.1111111
        k(   10) = (   0.0000000   0.6666667   0.0000000), wk =   0.0555556
        k(   11) = (   0.8333333  -0.1666667   0.8333333), wk =   0.2222222
        k(   12) = (   0.6666667  -0.0000000   0.6666667), wk =   0.1111111
        k(   13) = (   0.0000000  -1.0000000   0.0000000), wk =   0.0277778
        k(   14) = (   0.6666667  -0.3333333   1.0000000), wk =   0.2222222
        k(   15) = (   0.5000000  -0.1666667   0.8333333), wk =   0.2222222
        k(   16) = (  -0.3333333  -1.0000000   0.0000000), wk =   0.1111111

                       cryst. coord.
        k(    1) = (   0.0000000   0.0000000   0.0000000), wk =   0.0092593
        k(    2) = (   0.0000000   0.0000000   0.1666667), wk =   0.0740741
        k(    3) = (   0.0000000   0.0000000   0.3333333), wk =   0.0740741
        k(    4) = (   0.0000000   0.0000000  -0.5000000), wk =   0.0370370
        k(    5) = (   0.0000000   0.1666667   0.1666667), wk =   0.0555556
        k(    6) = (   0.0000000   0.1666667   0.3333333), wk =   0.2222222
        k(    7) = (   0.0000000   0.1666667  -0.5000000), wk =   0.2222222
        k(    8) = (   0.0000000   0.1666667  -0.3333333), wk =   0.2222222
        k(    9) = (   0.0000000   0.1666667  -0.1666667), wk =   0.1111111
        k(   10) = (   0.0000000   0.3333333   0.3333333), wk =   0.0555556
        k(   11) = (   0.0000000   0.3333333  -0.5000000), wk =   0.2222222
        k(   12) = (   0.0000000   0.3333333  -0.3333333), wk =   0.1111111
        k(   13) = (   0.0000000  -0.5000000  -0.5000000), wk =   0.0277778
        k(   14) = (   0.1666667   0.3333333  -0.5000000), wk =   0.2222222
        k(   15) = (   0.1666667   0.3333333  -0.3333333), wk =   0.2222222
        k(   16) = (   0.1666667  -0.5000000  -0.3333333), wk =   0.1111111

     Dense  grid:    12039 G-vectors     FFT dimensions: (  32,  32,  32)

     Dynamical RAM for                 wfc:       0.09 MB

     Dynamical RAM for     wfc (w. buffer):       1.55 MB

     Dynamical RAM for                 EXX:     317.77 MB

     Dynamical RAM for           str. fact:       0.09 MB

     Dynamical RAM for           local pot:       0.00 MB

     Dynamical RAM for          nlocal pot:       0.09 MB

     Dynamical RAM for                qrad:       0.91 MB

     Dynamical RAM for          rho,v,vnew:       0.33 MB

     Dynamical RAM for               rhoin:       0.11 MB

     Dynamical RAM for            rho*nmix:       0.73 MB

     Dynamical RAM for           G-vectors:       0.20 MB

     Dynamical RAM for          h,s,v(r/c):       0.05 MB

     Dynamical RAM for          <psi|beta>:       0.00 MB

     Dynamical RAM for                 psi:       0.18 MB

     Dynamical RAM for                hpsi:       0.18 MB

     Dynamical RAM for      wfcinit/wfcrot:       0.19 MB

     Estimated static dynamical RAM per process >     321.49 MB

     Estimated max dynamical RAM per process >     322.64 MB

     Estimated total dynamical RAM >       1.26 GB
     EXX: ACE will be initialized later

     Initial potential from superposition of free atoms

     starting charge      15.9336, renormalised to      16.0000
     Starting wfcs are random

     total cpu time spent up to now is        0.2 secs

     Self-consistent Calculation

     iteration #  1     ecut=    80.00 Ry     beta= 0.70
     Davidson diagonalization with overlap

---- Real-time Memory Report at c_bands before calling an iterative solver
            66 MiB given to the printing process from OS
             0 MiB allocation reported by mallinfo(arena+hblkhd)
         13916 MiB available memory on the node where the printing process lives
------------------
     ethr =  1.00E-02,  avg # of iterations =  7.1

     total cpu time spent up to now is        0.3 secs

     total energy              =    -140.69811373 Ry
     estimated scf accuracy    <       0.36330112 Ry

     iteration #  2     ecut=    80.00 Ry     beta= 0.70
     Davidson diagonalization with overlap

---- Real-time Memory Report at c_bands before calling an iterative solver
            68 MiB given to the printing process from OS
             0 MiB allocation reported by mallinfo(arena+hblkhd)
         13911 MiB available memory on the node where the printing process lives
------------------
     ethr =  2.27E-03,  avg # of iterations =  2.0

     total cpu time spent up to now is        0.4 secs

     total energy              =    -140.79405221 Ry
     estimated scf accuracy    <       0.29088882 Ry

     iteration #  3     ecut=    80.00 Ry     beta= 0.70
     Davidson diagonalization with overlap

---- Real-time Memory Report at c_bands before calling an iterative solver
            68 MiB given to the printing process from OS
             0 MiB allocation reported by mallinfo(arena+hblkhd)
         13910 MiB available memory on the node where the printing process lives
------------------
     ethr =  1.82E-03,  avg # of iterations =  1.8

     total cpu time spent up to now is        0.5 secs

     total energy              =    -140.85154278 Ry
     estimated scf accuracy    <       0.00152670 Ry

     iteration #  4     ecut=    80.00 Ry     beta= 0.70
     Davidson diagonalization with overlap

---- Real-time Memory Report at c_bands before calling an iterative solver
            68 MiB given to the printing process from OS
             0 MiB allocation reported by mallinfo(arena+hblkhd)
         13909 MiB available memory on the node where the printing process lives
------------------
     ethr =  9.54E-06,  avg # of iterations =  4.9

     total cpu time spent up to now is        0.5 secs

     total energy              =    -140.85188462 Ry
     estimated scf accuracy    <       0.00001238 Ry

     iteration #  5     ecut=    80.00 Ry     beta= 0.70
     Davidson diagonalization with overlap

---- Real-time Memory Report at c_bands before calling an iterative solver
            68 MiB given to the printing process from OS
             0 MiB allocation reported by mallinfo(arena+hblkhd)
         13909 MiB available memory on the node where the printing process lives
------------------
     ethr =  7.74E-08,  avg # of iterations =  2.0

     total cpu time spent up to now is        0.6 secs

     total energy              =    -140.85188768 Ry
     estimated scf accuracy    <       0.00000134 Ry

     iteration #  6     ecut=    80.00 Ry     beta= 0.70
     Davidson diagonalization with overlap

---- Real-time Memory Report at c_bands before calling an iterative solver
            69 MiB given to the printing process from OS
             0 MiB allocation reported by mallinfo(arena+hblkhd)
         13908 MiB available memory on the node where the printing process lives
------------------
     ethr =  8.36E-09,  avg # of iterations =  2.0

     total cpu time spent up to now is        0.7 secs

     total energy              =    -140.85188790 Ry
     estimated scf accuracy    <       0.00000011 Ry

     iteration #  7     ecut=    80.00 Ry     beta= 0.70
     Davidson diagonalization with overlap

---- Real-time Memory Report at c_bands before calling an iterative solver
            69 MiB given to the printing process from OS
             0 MiB allocation reported by mallinfo(arena+hblkhd)
         13908 MiB available memory on the node where the printing process lives
------------------
     ethr =  7.01E-10,  avg # of iterations =  1.4

     total cpu time spent up to now is        0.7 secs

     End of self-consistent calculation

          k = 0.0000 0.0000 0.0000 (  1459 PWs)   bands (ev):

   -63.2993 -30.0692 -30.0692 -30.0692  -8.2979   9.0034   9.0034   9.0034
    13.9554  25.0128  25.0128  25.0128  28.8647  30.8680  30.8680  33.7231

     occupation numbers 
     1.0000   1.0000   1.0000   1.0000   1.0000   1.0000   1.0000   1.0000
     0.0000   0.0000   0.0000   0.0000   0.0000   0.0000   0.0000   0.0000

          k =-0.1667 0.1667-0.1667 (  1489 PWs)   bands (ev):

   -63.2972 -30.0924 -30.0715 -30.0715  -7.9975   7.4922   8.8263   8.8263
    15.3658  22.6328  25.5973  25.5973  29.5624  29.5624  31.6020  34.5966

     occupation numbers 
     1.0000   1.0000   1.0000   1.0000   1.0000   1.0000   1.0000   1.0000
     0.0000   0.0000   0.0000   0.0000   0.0000   0.0000   0.0000   0.0000

          k =-0.3333 0.3333-0.3333 (  1501 PWs)   bands (ev):

   -63.2926 -30.1383 -30.0762 -30.0762  -7.3222   5.2987   8.4950   8.4950
    16.8522  21.5079  25.8364  25.8364  30.2314  30.2314  30.8199  38.6176

     occupation numbers 
     1.0000   1.0000   1.0000   1.0000   1.0000   1.0000   1.0000   1.0000
     0.0000   0.0000   0.0000   0.0000   0.0000   0.0000   0.0000   0.0000

          k = 0.5000-0.5000 0.5000 (  1502 PWs)   bands (ev):

   -63.2902 -30.1610 -30.0785 -30.0785  -6.9338   4.3303   8.3393   8.3393
    17.0524  21.8308  25.5764  25.5764  30.2731  31.8470  31.8470  37.9670

     occupation numbers 
     1.0000   1.0000   1.0000   1.0000   1.0000   1.0000   1.0000   1.0000
     0.0000   0.0000   0.0000   0.0000   0.0000   0.0000   0.0000   0.0000

          k = 0.0000 0.3333 0.0000 (  1491 PWs)   bands (ev):

   -63.2964 -30.0906 -30.0768 -30.0768  -7.9075   7.4145   8.6118   8.6118
    15.8499  21.8555  25.9027  25.9027  26.9872  31.7303  33.9175  35.0805

     occupation numbers 
     1.0000   1.0000   1.0000   1.0000   1.0000   1.0000   1.0000   1.0000
     0.0000   0.0000   0.0000   0.0000   0.0000   0.0000   0.0000   0.0000

          k =-0.1667 0.5000-0.1667 (  1484 PWs)   bands (ev):

   -63.2924 -30.1237 -30.0829 -30.0825  -7.3767   5.8957   8.1279   8.2789
    17.5098  20.6772  24.5817  26.4582  27.6328  32.1422  34.2728  38.0717

     occupation numbers 
     1.0000   1.0000   1.0000   1.0000   1.0000   1.0000   1.0000   1.0000
     0.0000   0.0000   0.0000   0.0000   0.0000   0.0000   0.0000   0.0000

          k = 0.6667-0.3333 0.6667 (  1493 PWs)   bands (ev):

   -63.2893 -30.1501 -30.0912 -30.0838  -6.8848   4.7887   7.5472   8.1514
    18.1564  21.4031  23.5127  26.2670  29.2801  32.7308  33.7420  38.5573

     occupation numbers 
     1.0000   1.0000   1.0000   1.0000   1.0000   1.0000   1.0000   1.0000
     0.0000   0.0000   0.0000   0.0000   0.0000   0.0000   0.0000   0.0000

          k = 0.5000-0.1667 0.5000 (  1499 PWs)   bands (ev):

   -63.2902 -30.1433 -30.0946 -30.0785  -7.0005   5.0692   7.4349   8.3398
    18.1542  21.2907  23.7488  26.3782  29.9881  30.6102  33.6644  39.0539

     occupation numbers 
     1.0000   1.0000   1.0000   1.0000   1.0000   1.0000   1.0000   1.0000
     0.0000   0.0000   0.0000   0.0000   0.0000   0.0000   0.0000   0.0000

          k = 0.3333 0.0000 0.3333 (  1492 PWs)   bands (ev):

   -63.2941 -30.1140 -30.0854 -30.0724  -7.5781   6.3625   8.0557   8.6803
    16.9001  21.3592  25.0051  26.8938  27.5026  30.4765  33.6671  36.1993

     occupation numbers 
     1.0000   1.0000   1.0000   1.0000   1.0000   1.0000   1.0000   1.0000
     0.0000   0.0000   0.0000   0.0000   0.0000   0.0000   0.0000   0.0000

          k = 0.0000 0.6667 0.0000 (  1479 PWs)   bands (ev):

   -63.2900 -30.1294 -30.0921 -30.0921  -7.1100   5.5382   7.9378   7.9378
    18.5304  19.1390  23.1326  27.5117  27.5117  34.1479  36.4868  38.8246

     occupation numbers 
     1.0000   1.0000   1.0000   1.0000   1.0000   1.0000   1.0000   1.0000
     0.0000   0.0000   0.0000   0.0000   0.0000   0.0000   0.0000   0.0000

          k = 0.8333-0.1667 0.8333 (  1501 PWs)   bands (ev):

   -63.2879 -30.1397 -30.1052 -30.0944  -6.7714   5.1884   7.0867   7.8039
    18.9228  20.0318  22.1696  27.6151  27.7931  35.3040  36.2075  38.4165

     occupation numbers 
     1.0000   1.0000   1.0000   1.0000   1.0000   1.0000   1.0000   1.0000
     0.0000   0.0000   0.0000   0.0000   0.0000   0.0000   0.0000   0.0000

          k = 0.6667-0.0000 0.6667 (  1516 PWs)   bands (ev):

   -63.2880 -30.1289 -30.1242 -30.0877  -6.7169   5.7459   5.9088   7.9915
    19.4626  21.3772  21.7986  27.0819  28.1529  32.4996  36.9957  37.6158

     occupation numbers 
     1.0000   1.0000   1.0000   1.0000   1.0000   1.0000   1.0000   1.0000
     0.0000   0.0000   0.0000   0.0000   0.0000   0.0000   0.0000   0.0000

          k = 0.0000-1.0000 0.0000 (  1524 PWs)   bands (ev):

   -63.2873 -30.1469 -30.0997 -30.0997  -6.7066   4.8838   7.6424   7.6424
    18.2137  19.2502  22.2960  28.2902  28.2902  34.8488  36.3618  40.2602

     occupation numbers 
     1.0000   1.0000   1.0000   1.0000   1.0000   1.0000   1.0000   1.0000
     0.0000   0.0000   0.0000   0.0000   0.0000   0.0000   0.0000   0.0000

          k = 0.6667-0.3333 1.0000 (  1492 PWs)   bands (ev):

   -63.2893 -30.1343 -30.1027 -30.0866  -6.9472   5.4316   7.1337   7.9744
    19.2192  20.2058  22.8284  26.4916  28.7483  32.2612  37.3061  37.7719

     occupation numbers 
     1.0000   1.0000   1.0000   1.0000   1.0000   1.0000   1.0000   1.0000
     0.0000   0.0000   0.0000   0.0000   0.0000   0.0000   0.0000   0.0000

          k = 0.5000-0.1667 0.8333 (  1498 PWs)   bands (ev):

   -63.2878 -30.1369 -30.1121 -30.0918  -6.7167   5.3790   6.5114   7.7224
    19.7325  21.1227  22.0146  25.7989  30.1091  31.3434  37.2431  37.8621

     occupation numbers 
     1.0000   1.0000   1.0000   1.0000   1.0000   1.0000   1.0000   1.0000
     0.0000   0.0000   0.0000   0.0000   0.0000   0.0000   0.0000   0.0000

          k =-0.3333-1.0000 0.0000 (  1510 PWs)   bands (ev):

   -63.2872 -30.1350 -30.1115 -30.1014  -6.6565   5.4120   6.7398   7.3175
    19.6753  20.7022  21.6554  25.8159  29.5050  34.0010  35.7242  37.8609

     occupation numbers 
     1.0000   1.0000   1.0000   1.0000   1.0000   1.0000   1.0000   1.0000
     0.0000   0.0000   0.0000   0.0000   0.0000   0.0000   0.0000   0.0000

     highest occupied, lowest unoccupied level (ev):     9.0034   13.9554

!    total energy              =    -140.85188791 Ry
     estimated scf accuracy    <          1.1E-09 Ry

     convergence has been achieved in   7 iterations

     Using ACE for calculation of exact exchange

     EXX grid:    12039 G-vectors     FFT dimensions: (  32,  32,  32)
     ACE projected onto    16 (nbndproj) and applied to    16 (nbnd) bands

     EXX: now go back to refine exchange calculation

     total cpu time spent up to now is      108.9 secs

     Self-consistent Calculation

     iteration #  1     ecut=    80.00 Ry     beta= 0.70
     Davidson diagonalization with overlap

---- Real-time Memory Report at c_bands before calling an iterative solver
           593 MiB given to the printing process from OS
             0 MiB allocation reported by mallinfo(arena+hblkhd)
         11831 MiB available memory on the node where the printing process lives
------------------
     ethr =  7.01E-10,  avg # of iterations =  6.2

     total cpu time spent up to now is      109.0 secs

     total energy              =    -140.88502248 Ry
     estimated scf accuracy    <       0.00078966 Ry

     iteration #  2     ecut=    80.00 Ry     beta= 0.70
     Davidson diagonalization with overlap

---- Real-time Memory Report at c_bands before calling an iterative solver
           593 MiB given to the printing process from OS
             0 MiB allocation reported by mallinfo(arena+hblkhd)
         11831 MiB available memory on the node where the printing process lives
------------------
     ethr =  4.94E-06,  avg # of iterations =  1.4

     total cpu time spent up to now is      109.1 secs

     total energy              =    -140.88505315 Ry
     estimated scf accuracy    <       0.00011454 Ry

     iteration #  3     ecut=    80.00 Ry     beta= 0.70
     Davidson diagonalization with overlap

---- Real-time Memory Report at c_bands before calling an iterative solver
           593 MiB given to the printing process from OS
             0 MiB allocation reported by mallinfo(arena+hblkhd)
         11831 MiB available memory on the node where the printing process lives
------------------
     ethr =  7.16E-07,  avg # of iterations =  2.0

     total cpu time spent up to now is      109.2 secs

     total energy              =    -140.88508098 Ry
     estimated scf accuracy    <       0.00003376 Ry

     iteration #  4     ecut=    80.00 Ry     beta= 0.70
     Davidson diagonalization with overlap

---- Real-time Memory Report at c_bands before calling an iterative solver
           593 MiB given to the printing process from OS
             0 MiB allocation reported by mallinfo(arena+hblkhd)
         11830 MiB available memory on the node where the printing process lives
------------------
     ethr =  2.11E-07,  avg # of iterations =  1.6

     total cpu time spent up to now is      109.2 secs

     total energy              =    -140.88508734 Ry
     estimated scf accuracy    <       0.00000002 Ry

     iteration #  5     ecut=    80.00 Ry     beta= 0.70
     Davidson diagonalization with overlap

---- Real-time Memory Report at c_bands before calling an iterative solver
           593 MiB given to the printing process from OS
             0 MiB allocation reported by mallinfo(arena+hblkhd)
         11830 MiB available memory on the node where the printing process lives
------------------
     ethr =  1.50E-10,  avg # of iterations =  2.4

     total cpu time spent up to now is      109.3 secs

     End of self-consistent calculation

          k = 0.0000 0.0000 0.0000 (  1459 PWs)   bands (ev):

   -73.0656 -34.8756 -34.8756 -34.8756 -13.2313   6.7568   6.7568   6.7568
    14.8666  26.4270  26.4270  26.4270  30.2547  32.5653  32.5653  36.1298

     occupation numbers 
     1.0000   1.0000   1.0000   1.0000   1.0000   1.0000   1.0000   1.0000
     0.0000   0.0000   0.0000   0.0000   0.0000   0.0000   0.0000   0.0000

          k =-0.1667 0.1667-0.1667 (  1489 PWs)   bands (ev):

   -73.0631 -34.9024 -34.8774 -34.8774 -12.9156   5.0988   6.5460   6.5460
    16.4244  24.0193  27.0940  27.0940  31.3716  31.3716  33.4526  36.5104

     occupation numbers 
     1.0000   1.0000   1.0000   1.0000   1.0000   1.0000   1.0000   1.0000
     0.0000   0.0000   0.0000   0.0000   0.0000   0.0000   0.0000   0.0000

          k =-0.3333 0.3333-0.3333 (  1501 PWs)   bands (ev):

   -73.0592 -34.9554 -34.8821 -34.8821 -12.2063   2.6427   6.1608   6.1608
    18.0437  23.1713  27.5037  27.5037  32.0830  32.0830  32.7018  40.6045

     occupation numbers 
     1.0000   1.0000   1.0000   1.0000   1.0000   1.0000   1.0000   1.0000
     0.0000   0.0000   0.0000   0.0000   0.0000   0.0000   0.0000   0.0000

          k = 0.5000-0.5000 0.5000 (  1502 PWs)   bands (ev):

   -73.0565 -34.9815 -34.8839 -34.8839 -11.8078   1.5663   5.9784   5.9784
    18.2114  23.7626  27.2845  27.2845  32.0387  33.8587  33.8587  40.0247

     occupation numbers 
     1.0000   1.0000   1.0000   1.0000   1.0000   1.0000   1.0000   1.0000
     0.0000   0.0000   0.0000   0.0000   0.0000   0.0000   0.0000   0.0000

          k = 0.0000 0.3333 0.0000 (  1491 PWs)   bands (ev):

   -73.0622 -34.8993 -34.8838 -34.8838 -12.8224   5.0108   6.3064   6.3065
    16.9685  23.0931  27.5385  27.5397  28.7804  33.4664  35.4868  37.3820

     occupation numbers 
     1.0000   1.0000   1.0000   1.0000   1.0000   1.0000   1.0000   1.0000
     0.0000   0.0000   0.0000   0.0000   0.0000   0.0000   0.0000   0.0000

          k =-0.1667 0.5000-0.1667 (  1484 PWs)   bands (ev):

   -73.0585 -34.9376 -34.8901 -34.8896 -12.2682   3.3071   5.7570   5.9258
    18.8251  22.0013  26.2725  28.2759  29.4856  33.9996  36.2615  40.6077

     occupation numbers 
     1.0000   1.0000   1.0000   1.0000   1.0000   1.0000   1.0000   1.0000
     0.0000   0.0000   0.0000   0.0000   0.0000   0.0000   0.0000   0.0000

          k = 0.6667-0.3333 0.6667 (  1493 PWs)   bands (ev):

   -73.0555 -34.9683 -34.8986 -34.8903 -11.7619   2.0766   5.1164   5.7704
    19.4300  23.1755  25.1326  28.1078  31.1854  34.7150  35.6608  40.8175

     occupation numbers 
     1.0000   1.0000   1.0000   1.0000   1.0000   1.0000   1.0000   1.0000
     0.0000   0.0000   0.0000   0.0000   0.0000   0.0000   0.0000   0.0000

          k = 0.5000-0.1667 0.5000 (  1499 PWs)   bands (ev):

   -73.0564 -34.9606 -34.9033 -34.8840 -11.8787   2.3860   4.9979   5.9784
    19.4726  22.9598  25.4212  28.1921  31.7243  32.5076  35.7079  41.2855

     occupation numbers 
     1.0000   1.0000   1.0000   1.0000   1.0000   1.0000   1.0000   1.0000
     0.0000   0.0000   0.0000   0.0000   0.0000   0.0000   0.0000   0.0000

          k = 0.3333 0.0000 0.3333 (  1492 PWs)   bands (ev):

   -73.0600 -34.9268 -34.8933 -34.8776 -12.4769   3.8303   5.6869   6.3655
    18.1616  22.7253  26.7312  28.3927  29.3651  32.2825  35.8001  38.2573

     occupation numbers 
     1.0000   1.0000   1.0000   1.0000   1.0000   1.0000   1.0000   1.0000
     0.0000   0.0000   0.0000   0.0000   0.0000   0.0000   0.0000   0.0000

          k = 0.0000 0.6667 0.0000 (  1479 PWs)   bands (ev):

   -73.0567 -34.9435 -34.9011 -34.9011 -11.9961   2.9067   5.5489   5.5489
    19.9559  20.2309  24.8774  29.5992  29.5996  35.9912  38.8779  40.8795

     occupation numbers 
     1.0000   1.0000   1.0000   1.0000   1.0000   1.0000   1.0000   1.0000
     0.0000   0.0000   0.0000   0.0000   0.0000   0.0000   0.0000   0.0000

          k = 0.8333-0.1667 0.8333 (  1501 PWs)   bands (ev):

   -73.0542 -34.9552 -34.9156 -34.9030 -11.6540   2.5213   4.6115   5.3926
    20.1040  21.5199  23.9475  29.7600  29.8920  37.2719  38.4965  40.3899

     occupation numbers 
     1.0000   1.0000   1.0000   1.0000   1.0000   1.0000   1.0000   1.0000
     0.0000   0.0000   0.0000   0.0000   0.0000   0.0000   0.0000   0.0000

          k = 0.6667-0.0000 0.6667 (  1516 PWs)   bands (ev):

   -73.0548 -34.9436 -34.9375 -34.8950 -11.5912   3.1368   3.3229   5.5948
    20.8150  23.0658  23.4907  29.1244  29.9434  34.1928  39.1759  39.9768

     occupation numbers 
     1.0000   1.0000   1.0000   1.0000   1.0000   1.0000   1.0000   1.0000
     0.0000   0.0000   0.0000   0.0000   0.0000   0.0000   0.0000   0.0000

          k = 0.0000-1.0000 0.0000 (  1524 PWs)   bands (ev):

   -73.0535 -34.9629 -34.9094 -34.9094 -11.5942   2.1849   5.2152   5.2152
    19.2551  20.5904  24.2765  30.6112  30.6112  36.9861  38.3295  42.1725

     occupation numbers 
     1.0000   1.0000   1.0000   1.0000   1.0000   1.0000   1.0000   1.0000
     0.0000   0.0000   0.0000   0.0000   0.0000   0.0000   0.0000   0.0000

          k = 0.6667-0.3333 1.0000 (  1492 PWs)   bands (ev):

   -73.0554 -34.9494 -34.9129 -34.8936 -11.8288   2.7876   4.6706   5.5738
    20.7439  21.5329  24.4598  28.4940  30.6559  34.1670  39.3748  40.1348

     occupation numbers 
     1.0000   1.0000   1.0000   1.0000   1.0000   1.0000   1.0000   1.0000
     0.0000   0.0000   0.0000   0.0000   0.0000   0.0000   0.0000   0.0000

          k = 0.5000-0.1667 0.8333 (  1498 PWs)   bands (ev):

   -73.0541 -34.9525 -34.9230 -34.8999 -11.5938   2.7337   3.9852   5.2945
    21.1724  22.7617  23.6298  27.7053  31.9331  33.3793  39.4876  39.9776

     occupation numbers 
     1.0000   1.0000   1.0000   1.0000   1.0000   1.0000   1.0000   1.0000
     0.0000   0.0000   0.0000   0.0000   0.0000   0.0000   0.0000   0.0000

          k =-0.3333-1.0000 0.0000 (  1510 PWs)   bands (ev):

   -73.0533 -34.9495 -34.9226 -34.9113 -11.5381   2.7722   4.2332   4.8541
    20.9583  22.2120  23.4390  27.7688  31.7026  35.9489  37.8467  40.2420

     occupation numbers 
     1.0000   1.0000   1.0000   1.0000   1.0000   1.0000   1.0000   1.0000
     0.0000   0.0000   0.0000   0.0000   0.0000   0.0000   0.0000   0.0000

     highest occupied, lowest unoccupied level (ev):     6.7568   14.8666

!    total energy              =    -140.88508735 Ry
     estimated scf accuracy    <          5.0E-09 Ry

     convergence has been achieved in   5 iterations

     Using ACE for calculation of exact exchange
     ACE projected onto    16 (nbndproj) and applied to    16 (nbnd) bands

     total energy              =    -140.88587090 Ry
     Harris-Foulkes estimate   =    -140.88587090 Ry
     est. exchange err (dexx)  =       0.00078355 Ry
     - averaged Fock potential =      16.51374581 Ry
     + Fock energy (ACE)       =      -8.26699312 Ry

     EXX: now go back to refine exchange calculation

     total cpu time spent up to now is      217.5 secs

     Self-consistent Calculation

     iteration #  1     ecut=    80.00 Ry     beta= 0.70
     Davidson diagonalization with overlap

---- Real-time Memory Report at c_bands before calling an iterative solver
           593 MiB given to the printing process from OS
             0 MiB allocation reported by mallinfo(arena+hblkhd)
         11830 MiB available memory on the node where the printing process lives
------------------
     ethr =  1.50E-10,  avg # of iterations =  5.0

     total cpu time spent up to now is      217.6 secs

     total energy              =    -140.88597415 Ry
     estimated scf accuracy    <       0.00002277 Ry

     iteration #  2     ecut=    80.00 Ry     beta= 0.70
     Davidson diagonalization with overlap

---- Real-time Memory Report at c_bands before calling an iterative solver
           593 MiB given to the printing process from OS
             0 MiB allocation reported by mallinfo(arena+hblkhd)
         11830 MiB available memory on the node where the printing process lives
------------------
     ethr =  1.42E-07,  avg # of iterations =  1.8

     total cpu time spent up to now is      217.7 secs

     total energy              =    -140.88597665 Ry
     estimated scf accuracy    <       0.00000577 Ry

     iteration #  3     ecut=    80.00 Ry     beta= 0.70
     Davidson diagonalization with overlap

---- Real-time Memory Report at c_bands before calling an iterative solver
           593 MiB given to the printing process from OS
             0 MiB allocation reported by mallinfo(arena+hblkhd)
         11830 MiB available memory on the node where the printing process lives
------------------
     ethr =  3.61E-08,  avg # of iterations =  2.0

     total cpu time spent up to now is      217.8 secs

     total energy              =    -140.88597818 Ry
     estimated scf accuracy    <       0.00000060 Ry

     iteration #  4     ecut=    80.00 Ry     beta= 0.70
     Davidson diagonalization with overlap

---- Real-time Memory Report at c_bands before calling an iterative solver
           593 MiB given to the printing process from OS
             0 MiB allocation reported by mallinfo(arena+hblkhd)
         11830 MiB available memory on the node where the printing process lives
------------------
     ethr =  3.77E-09,  avg # of iterations =  1.4

     total cpu time spent up to now is      217.8 secs

     End of self-consistent calculation

          k = 0.0000 0.0000 0.0000 (  1459 PWs)   bands (ev):

   -73.0682 -34.8953 -34.8953 -34.8953 -13.2432   6.7325   6.7325   6.7325
    14.9488  26.4465  26.4465  26.4465  30.2863  32.5699  32.5699  36.1459

     occupation numbers 
     1.0000   1.0000   1.0000   1.0000   1.0000   1.0000   1.0000   1.0000
     0.0000   0.0000   0.0000   0.0000   0.0000   0.0000   0.0000   0.0000

          k =-0.1667 0.1667-0.1667 (  1489 PWs)   bands (ev):

   -73.0658 -34.9218 -34.8972 -34.8972 -12.9290   5.0979   6.5240   6.5240
    16.4841  24.0486  27.1124  27.1124  31.3805  31.3805  33.4761  36.5287

     occupation numbers 
     1.0000   1.0000   1.0000   1.0000   1.0000   1.0000   1.0000   1.0000
     0.0000   0.0000   0.0000   0.0000   0.0000   0.0000   0.0000   0.0000

          k =-0.3333 0.3333-0.3333 (  1501 PWs)   bands (ev):

   -73.0618 -34.9743 -34.9016 -34.9016 -12.2253   2.6544   6.1403   6.1403
    18.0948  23.2033  27.5209  27.5209  32.0997  32.0997  32.7278  40.6214

     occupation numbers 
     1.0000   1.0000   1.0000   1.0000   1.0000   1.0000   1.0000   1.0000
     0.0000   0.0000   0.0000   0.0000   0.0000   0.0000   0.0000   0.0000

          k = 0.5000-0.5000 0.5000 (  1502 PWs)   bands (ev):

   -73.0592 -35.0002 -34.9035 -34.9035 -11.8293   1.5829   5.9588   5.9588
    18.2631  23.7965  27.3017  27.3017  32.0667  33.8810  33.8810  40.0349

     occupation numbers 
     1.0000   1.0000   1.0000   1.0000   1.0000   1.0000   1.0000   1.0000
     0.0000   0.0000   0.0000   0.0000   0.0000   0.0000   0.0000   0.0000

          k = 0.0000 0.3333 0.0000 (  1491 PWs)   bands (ev):

   -73.0650 -34.9188 -34.9035 -34.9035 -12.8362   5.0115   6.2873   6.2873
    17.0218  23.1240  27.5583  27.5584  28.7967  33.4701  35.5081  37.3962

     occupation numbers 
     1.0000   1.0000   1.0000   1.0000   1.0000   1.0000   1.0000   1.0000
     0.0000   0.0000   0.0000   0.0000   0.0000   0.0000   0.0000   0.0000

          k =-0.1667 0.5000-0.1667 (  1484 PWs)   bands (ev):

   -73.0613 -34.9567 -34.9097 -34.9091 -12.2860   3.3155   5.7442   5.9082
    18.8677  22.0347  26.2963  28.2944  29.5058  34.0102  36.2792  40.6241

     occupation numbers 
     1.0000   1.0000   1.0000   1.0000   1.0000   1.0000   1.0000   1.0000
     0.0000   0.0000   0.0000   0.0000   0.0000   0.0000   0.0000   0.0000

          k = 0.6667-0.3333 0.6667 (  1493 PWs)   bands (ev):

   -73.0582 -34.9872 -34.9181 -34.9099 -11.7834   2.0899   5.1080   5.7532
    19.4720  23.2078  25.1600  28.1258  31.2070  34.7344  35.6797  40.8125

     occupation numbers 
     1.0000   1.0000   1.0000   1.0000   1.0000   1.0000   1.0000   1.0000
     0.0000   0.0000   0.0000   0.0000   0.0000   0.0000   0.0000   0.0000

          k = 0.5000-0.1667 0.5000 (  1499 PWs)   bands (ev):

   -73.0592 -34.9795 -34.9227 -34.9036 -11.8995   2.3981   4.9908   5.9595
    19.5143  22.9914  25.4487  28.2092  31.7408  32.5299  35.7256  41.2924

     occupation numbers 
     1.0000   1.0000   1.0000   1.0000   1.0000   1.0000   1.0000   1.0000
     0.0000   0.0000   0.0000   0.0000   0.0000   0.0000   0.0000   0.0000

          k = 0.3333 0.0000 0.3333 (  1492 PWs)   bands (ev):

   -73.0627 -34.9460 -34.9129 -34.8973 -12.4930   3.8369   5.6749   6.3452
    18.2069  22.7577  26.7540  28.4095  29.3794  32.2991  35.8170  38.2688

     occupation numbers 
     1.0000   1.0000   1.0000   1.0000   1.0000   1.0000   1.0000   1.0000
     0.0000   0.0000   0.0000   0.0000   0.0000   0.0000   0.0000   0.0000

          k = 0.0000 0.6667 0.0000 (  1479 PWs)   bands (ev):

   -73.0593 -34.9624 -34.9206 -34.9206 -12.0165   2.9153   5.5330   5.5330
    19.9960  20.2706  24.9061  29.6227  29.6227  35.9928  38.8939  40.8933

     occupation numbers 
     1.0000   1.0000   1.0000   1.0000   1.0000   1.0000   1.0000   1.0000
     0.0000   0.0000   0.0000   0.0000   0.0000   0.0000   0.0000   0.0000

          k = 0.8333-0.1667 0.8333 (  1501 PWs)   bands (ev):

   -73.0569 -34.9741 -34.9350 -34.9225 -11.6765   2.5304   4.6056   5.3774
    20.1436  21.5572  23.9783  29.7828  29.9166  37.2827  38.5068  40.3941

     occupation numbers 
     1.0000   1.0000   1.0000   1.0000   1.0000   1.0000   1.0000   1.0000
     0.0000   0.0000   0.0000   0.0000   0.0000   0.0000   0.0000   0.0000

          k = 0.6667-0.0000 0.6667 (  1516 PWs)   bands (ev):

   -73.0574 -34.9626 -34.9565 -34.9144 -11.6150   3.1427   3.3263   5.5778
    20.8520  23.0971  23.5250  29.1444  29.9641  34.2063  39.1918  39.9861

     occupation numbers 
     1.0000   1.0000   1.0000   1.0000   1.0000   1.0000   1.0000   1.0000
     0.0000   0.0000   0.0000   0.0000   0.0000   0.0000   0.0000   0.0000

          k = 0.0000-1.0000 0.0000 (  1524 PWs)   bands (ev):

   -73.0563 -34.9817 -34.9289 -34.9289 -11.6170   2.1948   5.2012   5.2012
    19.2975  20.6344  24.3089  30.6384  30.6384  36.9961  38.3267  42.1825

     occupation numbers 
     1.0000   1.0000   1.0000   1.0000   1.0000   1.0000   1.0000   1.0000
     0.0000   0.0000   0.0000   0.0000   0.0000   0.0000   0.0000   0.0000

          k = 0.6667-0.3333 1.0000 (  1492 PWs)   bands (ev):

   -73.0582 -34.9684 -34.9323 -34.9132 -11.8498   2.7970   4.6648   5.5605
    20.7794  21.5667  24.4900  28.5161  30.6757  34.1825  39.3894  40.1339

     occupation numbers 
     1.0000   1.0000   1.0000   1.0000   1.0000   1.0000   1.0000   1.0000
     0.0000   0.0000   0.0000   0.0000   0.0000   0.0000   0.0000   0.0000

          k = 0.5000-0.1667 0.8333 (  1498 PWs)   bands (ev):

   -73.0569 -34.9715 -34.9422 -34.9193 -11.6168   2.7419   3.9845   5.2830
    21.2066  22.7933  23.6634  27.7279  31.9490  33.3992  39.4928  39.9749

     occupation numbers 
     1.0000   1.0000   1.0000   1.0000   1.0000   1.0000   1.0000   1.0000
     0.0000   0.0000   0.0000   0.0000   0.0000   0.0000   0.0000   0.0000

          k =-0.3333-1.0000 0.0000 (  1510 PWs)   bands (ev):

   -73.0561 -34.9684 -34.9419 -34.9307 -11.5614   2.7788   4.2306   4.8456
    20.9932  22.2493  23.4702  27.7925  31.7265  35.9642  37.8507  40.2531

     occupation numbers 
     1.0000   1.0000   1.0000   1.0000   1.0000   1.0000   1.0000   1.0000
     0.0000   0.0000   0.0000   0.0000   0.0000   0.0000   0.0000   0.0000

     highest occupied, lowest unoccupied level (ev):     6.7325   14.9488

!    total energy              =    -140.88597828 Ry
     estimated scf accuracy    <          7.1E-10 Ry

     convergence has been achieved in   4 iterations

     Using ACE for calculation of exact exchange
     ACE projected onto    16 (nbndproj) and applied to    16 (nbnd) bands

     total energy              =    -140.88599401 Ry
     Harris-Foulkes estimate   =    -140.88599401 Ry
     est. exchange err (dexx)  =       0.00001573 Ry
     - averaged Fock potential =      16.53711441 Ry
     + Fock energy (ACE)       =      -8.27013702 Ry

     EXX: now go back to refine exchange calculation

     total cpu time spent up to now is      325.2 secs

     Self-consistent Calculation

     iteration #  1     ecut=    80.00 Ry     beta= 0.70
     Davidson diagonalization with overlap

---- Real-time Memory Report at c_bands before calling an iterative solver
           593 MiB given to the printing process from OS
             0 MiB allocation reported by mallinfo(arena+hblkhd)
         11828 MiB available memory on the node where the printing process lives
------------------
     ethr =  3.77E-09,  avg # of iterations =  2.9

     total cpu time spent up to now is      325.2 secs

     total energy              =    -140.88599625 Ry
     estimated scf accuracy    <       0.00000069 Ry

     iteration #  2     ecut=    80.00 Ry     beta= 0.70
     Davidson diagonalization with overlap

---- Real-time Memory Report at c_bands before calling an iterative solver
           593 MiB given to the printing process from OS
             0 MiB allocation reported by mallinfo(arena+hblkhd)
         11828 MiB available memory on the node where the printing process lives
------------------
     ethr =  4.31E-09,  avg # of iterations =  2.0

     total cpu time spent up to now is      325.3 secs

     total energy              =    -140.88599636 Ry
     estimated scf accuracy    <       0.00000023 Ry

     iteration #  3     ecut=    80.00 Ry     beta= 0.70
     Davidson diagonalization with overlap

---- Real-time Memory Report at c_bands before calling an iterative solver
           593 MiB given to the printing process from OS
             0 MiB allocation reported by mallinfo(arena+hblkhd)
         11828 MiB available memory on the node where the printing process lives
------------------
     ethr =  1.44E-09,  avg # of iterations =  2.0

     total cpu time spent up to now is      325.4 secs

     total energy              =    -140.88599642 Ry
     estimated scf accuracy    <       0.00000001 Ry

     iteration #  4     ecut=    80.00 Ry     beta= 0.70
     Davidson diagonalization with overlap

---- Real-time Memory Report at c_bands before calling an iterative solver
           593 MiB given to the printing process from OS
             0 MiB allocation reported by mallinfo(arena+hblkhd)
         11828 MiB available memory on the node where the printing process lives
------------------
     ethr =  7.23E-11,  avg # of iterations =  1.2

     total cpu time spent up to now is      325.5 secs

     End of self-consistent calculation

          k = 0.0000 0.0000 0.0000 (  1459 PWs)   bands (ev):

   -73.0688 -34.8980 -34.8980 -34.8980 -13.2430   6.7288   6.7288   6.7288
    14.9632  26.4499  26.4499  26.4499  30.2919  32.5707  32.5707  36.1485

     occupation numbers 
     1.0000   1.0000   1.0000   1.0000   1.0000   1.0000   1.0000   1.0000
     0.0000   0.0000   0.0000   0.0000   0.0000   0.0000   0.0000   0.0000

          k =-0.1667 0.1667-0.1667 (  1489 PWs)   bands (ev):

   -73.0665 -34.9245 -34.8999 -34.8999 -12.9290   5.0982   6.5206   6.5206
    16.4945  24.0536  27.1156  27.1156  31.3821  31.3821  33.4802  36.5318

     occupation numbers 
     1.0000   1.0000   1.0000   1.0000   1.0000   1.0000   1.0000   1.0000
     0.0000   0.0000   0.0000   0.0000   0.0000   0.0000   0.0000   0.0000

          k =-0.3333 0.3333-0.3333 (  1501 PWs)   bands (ev):

   -73.0625 -34.9769 -34.9043 -34.9043 -12.2260   2.6567   6.1373   6.1373
    18.1036  23.2084  27.5238  27.5238  32.1025  32.1025  32.7319  40.6247

     occupation numbers 
     1.0000   1.0000   1.0000   1.0000   1.0000   1.0000   1.0000   1.0000
     0.0000   0.0000   0.0000   0.0000   0.0000   0.0000   0.0000   0.0000

          k = 0.5000-0.5000 0.5000 (  1502 PWs)   bands (ev):

   -73.0599 -35.0027 -34.9062 -34.9062 -11.8303   1.5858   5.9560   5.9560
    18.2721  23.8017  27.3046  27.3046  32.0711  33.8848  33.8848  40.0371

     occupation numbers 
     1.0000   1.0000   1.0000   1.0000   1.0000   1.0000   1.0000   1.0000
     0.0000   0.0000   0.0000   0.0000   0.0000   0.0000   0.0000   0.0000

          k = 0.0000 0.3333 0.0000 (  1491 PWs)   bands (ev):

   -73.0656 -34.9215 -34.9062 -34.9062 -12.8363   5.0120   6.2843   6.2843
    17.0310  23.1293  27.5617  27.5617  28.7993  33.4708  35.5119  37.3986

     occupation numbers 
     1.0000   1.0000   1.0000   1.0000   1.0000   1.0000   1.0000   1.0000
     0.0000   0.0000   0.0000   0.0000   0.0000   0.0000   0.0000   0.0000

          k =-0.1667 0.5000-0.1667 (  1484 PWs)   bands (ev):

   -73.0619 -34.9594 -34.9124 -34.9118 -12.2866   3.3174   5.7422   5.9056
    18.8750  22.0404  26.3001  28.2977  29.5091  34.0120  36.2822  40.6268

     occupation numbers 
     1.0000   1.0000   1.0000   1.0000   1.0000   1.0000   1.0000   1.0000
     0.0000   0.0000   0.0000   0.0000   0.0000   0.0000   0.0000   0.0000

          k = 0.6667-0.3333 0.6667 (  1493 PWs)   bands (ev):

   -73.0589 -34.9898 -34.9208 -34.9126 -11.7844   2.0923   5.1069   5.7507
    19.4794  23.2130  25.1643  28.1288  31.2106  34.7378  35.6828  40.8108

     occupation numbers 
     1.0000   1.0000   1.0000   1.0000   1.0000   1.0000   1.0000   1.0000
     0.0000   0.0000   0.0000   0.0000   0.0000   0.0000   0.0000   0.0000

          k = 0.5000-0.1667 0.5000 (  1499 PWs)   bands (ev):

   -73.0598 -34.9821 -34.9254 -34.9063 -11.9005   2.4003   4.9898   5.9567
    19.5216  22.9965  25.4530  28.2120  31.7437  32.5337  35.7286  41.2934

     occupation numbers 
     1.0000   1.0000   1.0000   1.0000   1.0000   1.0000   1.0000   1.0000
     0.0000   0.0000   0.0000   0.0000   0.0000   0.0000   0.0000   0.0000

          k = 0.3333 0.0000 0.3333 (  1492 PWs)   bands (ev):

   -73.0634 -34.9486 -34.9156 -34.9000 -12.4934   3.8385   5.6730   6.3421
    18.2147  22.7633  26.7578  28.4124  29.3817  32.3018  35.8203  38.2707

     occupation numbers 
     1.0000   1.0000   1.0000   1.0000   1.0000   1.0000   1.0000   1.0000
     0.0000   0.0000   0.0000   0.0000   0.0000   0.0000   0.0000   0.0000

          k = 0.0000 0.6667 0.0000 (  1479 PWs)   bands (ev):

   -73.0600 -34.9650 -34.9232 -34.9232 -12.0174   2.9172   5.5307   5.5307
    20.0026  20.2774  24.9106  29.6267  29.6267  35.9932  38.8967  40.8957

     occupation numbers 
     1.0000   1.0000   1.0000   1.0000   1.0000   1.0000   1.0000   1.0000
     0.0000   0.0000   0.0000   0.0000   0.0000   0.0000   0.0000   0.0000

          k = 0.8333-0.1667 0.8333 (  1501 PWs)   bands (ev):

   -73.0576 -34.9767 -34.9377 -34.9252 -11.6776   2.5322   4.6048   5.3752
    20.1503  21.5632  23.9832  29.7866  29.9208  37.2846  38.5088  40.3949

     occupation numbers 
     1.0000   1.0000   1.0000   1.0000   1.0000   1.0000   1.0000   1.0000
     0.0000   0.0000   0.0000   0.0000   0.0000   0.0000   0.0000   0.0000

          k = 0.6667-0.0000 0.6667 (  1516 PWs)   bands (ev):

   -73.0581 -34.9653 -34.9591 -34.9171 -11.6162   3.1440   3.3271   5.5753
    20.8583  23.1022  23.5301  29.1476  29.9679  34.2087  39.1946  39.9876

     occupation numbers 
     1.0000   1.0000   1.0000   1.0000   1.0000   1.0000   1.0000   1.0000
     0.0000   0.0000   0.0000   0.0000   0.0000   0.0000   0.0000   0.0000

          k = 0.0000-1.0000 0.0000 (  1524 PWs)   bands (ev):

   -73.0569 -34.9843 -34.9316 -34.9316 -11.6181   2.1968   5.1992   5.1992
    19.3047  20.6413  24.3141  30.6427  30.6427  36.9982  38.3263  42.1843

     occupation numbers 
     1.0000   1.0000   1.0000   1.0000   1.0000   1.0000   1.0000   1.0000
     0.0000   0.0000   0.0000   0.0000   0.0000   0.0000   0.0000   0.0000

          k = 0.6667-0.3333 1.0000 (  1492 PWs)   bands (ev):

   -73.0589 -34.9710 -34.9349 -34.9159 -11.8507   2.7989   4.6640   5.5584
    20.7855  21.5725  24.4947  28.5198  30.6791  34.1852  39.3920  40.1258

     occupation numbers 
     1.0000   1.0000   1.0000   1.0000   1.0000   1.0000   1.0000   1.0000
     0.0000   0.0000   0.0000   0.0000   0.0000   0.0000   0.0000   0.0000

          k = 0.5000-0.1667 0.8333 (  1498 PWs)   bands (ev):

   -73.0576 -34.9741 -34.9449 -34.9220 -11.6180   2.7435   3.9846   5.2812
    21.2125  22.7985  23.6685  27.7318  31.9519  33.4026  39.4938  39.9715

     occupation numbers 
     1.0000   1.0000   1.0000   1.0000   1.0000   1.0000   1.0000   1.0000
     0.0000   0.0000   0.0000   0.0000   0.0000   0.0000   0.0000   0.0000

          k =-0.3333-1.0000 0.0000 (  1510 PWs)   bands (ev):

   -73.0568 -34.9710 -34.9446 -34.9333 -11.5626   2.7801   4.2304   4.8444
    20.9991  22.2551  23.4753  27.7966  31.7304  35.9668  37.8516  40.2548

     occupation numbers 
     1.0000   1.0000   1.0000   1.0000   1.0000   1.0000   1.0000   1.0000
     0.0000   0.0000   0.0000   0.0000   0.0000   0.0000   0.0000   0.0000

     highest occupied, lowest unoccupied level (ev):     6.7288   14.9632

!    total energy              =    -140.88599642 Ry
     estimated scf accuracy    <          3.0E-11 Ry

     convergence has been achieved in   4 iterations

     Using ACE for calculation of exact exchange
     ACE projected onto    16 (nbndproj) and applied to    16 (nbnd) bands

     total energy              =    -140.88599679 Ry
     Harris-Foulkes estimate   =    -140.88599679 Ry
     est. exchange err (dexx)  =       0.00000037 Ry
     - averaged Fock potential =      16.54078018 Ry
     + Fock energy (ACE)       =      -8.27064353 Ry

     EXX: now go back to refine exchange calculation

     total cpu time spent up to now is      433.4 secs

     Self-consistent Calculation

     iteration #  1     ecut=    80.00 Ry     beta= 0.70
     Davidson diagonalization with overlap

---- Real-time Memory Report at c_bands before calling an iterative solver
           593 MiB given to the printing process from OS
             0 MiB allocation reported by mallinfo(arena+hblkhd)
         11826 MiB available memory on the node where the printing process lives
------------------
     ethr =  7.23E-11,  avg # of iterations =  2.9

     total cpu time spent up to now is      433.5 secs

     total energy              =    -140.88599684 Ry
     estimated scf accuracy    <       0.00000002 Ry

     iteration #  2     ecut=    80.00 Ry     beta= 0.70
     Davidson diagonalization with overlap

---- Real-time Memory Report at c_bands before calling an iterative solver
           593 MiB given to the printing process from OS
             0 MiB allocation reported by mallinfo(arena+hblkhd)
         11826 MiB available memory on the node where the printing process lives
------------------
     ethr =  1.32E-10,  avg # of iterations =  2.0

     total cpu time spent up to now is      433.6 secs

     End of self-consistent calculation

          k = 0.0000 0.0000 0.0000 (  1459 PWs)   bands (ev):

   -73.0691 -34.8985 -34.8985 -34.8985 -13.2425   6.7286   6.7286   6.7286
    14.9658  26.4504  26.4504  26.4504  30.2928  32.5708  32.5708  36.1489

     occupation numbers 
     1.0000   1.0000   1.0000   1.0000   1.0000   1.0000   1.0000   1.0000
     0.0000   0.0000   0.0000   0.0000   0.0000   0.0000   0.0000   0.0000

          k =-0.1667 0.1667-0.1667 (  1489 PWs)   bands (ev):

   -73.0668 -34.9250 -34.9004 -34.9004 -12.9284   5.0986   6.5204   6.5204
    16.4964  24.0545  27.1161  27.1161  31.3823  31.3823  33.4808  36.5322

     occupation numbers 
     1.0000   1.0000   1.0000   1.0000   1.0000   1.0000   1.0000   1.0000
     0.0000   0.0000   0.0000   0.0000   0.0000   0.0000   0.0000   0.0000

          k =-0.3333 0.3333-0.3333 (  1501 PWs)   bands (ev):

   -73.0628 -34.9774 -34.9048 -34.9048 -12.2255   2.6573   6.1371   6.1371
    18.1052  23.2094  27.5243  27.5243  32.1030  32.1030  32.7325  40.6253

     occupation numbers 
     1.0000   1.0000   1.0000   1.0000   1.0000   1.0000   1.0000   1.0000
     0.0000   0.0000   0.0000   0.0000   0.0000   0.0000   0.0000   0.0000

          k = 0.5000-0.5000 0.5000 (  1502 PWs)   bands (ev):

   -73.0602 -35.0032 -34.9067 -34.9067 -11.8298   1.5865   5.9559   5.9559
    18.2737  23.8027  27.3050  27.3050  32.0717  33.8854  33.8854  40.0376

     occupation numbers 
     1.0000   1.0000   1.0000   1.0000   1.0000   1.0000   1.0000   1.0000
     0.0000   0.0000   0.0000   0.0000   0.0000   0.0000   0.0000   0.0000

          k = 0.0000 0.3333 0.0000 (  1491 PWs)   bands (ev):

   -73.0659 -34.9220 -34.9067 -34.9067 -12.8357   5.0125   6.2842   6.2842
    17.0328  23.1301  27.5623  27.5623  28.7996  33.4709  35.5125  37.3990

     occupation numbers 
     1.0000   1.0000   1.0000   1.0000   1.0000   1.0000   1.0000   1.0000
     0.0000   0.0000   0.0000   0.0000   0.0000   0.0000   0.0000   0.0000

          k =-0.1667 0.5000-0.1667 (  1484 PWs)   bands (ev):

   -73.0622 -34.9599 -34.9130 -34.9123 -12.2861   3.3179   5.7422   5.9055
    18.8764  22.0413  26.3006  28.2983  29.5097  34.0123  36.2826  40.6273

     occupation numbers 
     1.0000   1.0000   1.0000   1.0000   1.0000   1.0000   1.0000   1.0000
     0.0000   0.0000   0.0000   0.0000   0.0000   0.0000   0.0000   0.0000

          k = 0.6667-0.3333 0.6667 (  1493 PWs)   bands (ev):

   -73.0592 -34.9903 -34.9213 -34.9131 -11.7840   2.0929   5.1070   5.7506
    19.4807  23.2140  25.1649  28.1292  31.2113  34.7384  35.6833  40.8103

     occupation numbers 
     1.0000   1.0000   1.0000   1.0000   1.0000   1.0000   1.0000   1.0000
     0.0000   0.0000   0.0000   0.0000   0.0000   0.0000   0.0000   0.0000

          k = 0.5000-0.1667 0.5000 (  1499 PWs)   bands (ev):

   -73.0601 -34.9826 -34.9259 -34.9068 -11.9000   2.4009   4.9899   5.9566
    19.5229  22.9975  25.4537  28.2124  31.7441  32.5344  35.7290  41.2935

     occupation numbers 
     1.0000   1.0000   1.0000   1.0000   1.0000   1.0000   1.0000   1.0000
     0.0000   0.0000   0.0000   0.0000   0.0000   0.0000   0.0000   0.0000

          k = 0.3333 0.0000 0.3333 (  1492 PWs)   bands (ev):

   -73.0637 -34.9491 -34.9161 -34.9005 -12.4929   3.8390   5.6730   6.3419
    18.2162  22.7642  26.7584  28.4129  29.3820  32.3022  35.8208  38.2710

     occupation numbers 
     1.0000   1.0000   1.0000   1.0000   1.0000   1.0000   1.0000   1.0000
     0.0000   0.0000   0.0000   0.0000   0.0000   0.0000   0.0000   0.0000

          k = 0.0000 0.6667 0.0000 (  1479 PWs)   bands (ev):

   -73.0603 -34.9655 -34.9238 -34.9238 -12.0169   2.9178   5.5306   5.5306
    20.0038  20.2785  24.9114  29.6274  29.6274  35.9932  38.8972  40.8960

     occupation numbers 
     1.0000   1.0000   1.0000   1.0000   1.0000   1.0000   1.0000   1.0000
     0.0000   0.0000   0.0000   0.0000   0.0000   0.0000   0.0000   0.0000

          k = 0.8333-0.1667 0.8333 (  1501 PWs)   bands (ev):

   -73.0579 -34.9772 -34.9382 -34.9258 -11.6772   2.5327   4.6050   5.3751
    20.1514  21.5642  23.9842  29.7872  29.9215  37.2849  38.5092  40.3950

     occupation numbers 
     1.0000   1.0000   1.0000   1.0000   1.0000   1.0000   1.0000   1.0000
     0.0000   0.0000   0.0000   0.0000   0.0000   0.0000   0.0000   0.0000

          k = 0.6667-0.0000 0.6667 (  1516 PWs)   bands (ev):

   -73.0584 -34.9658 -34.9596 -34.9176 -11.6158   3.1444   3.3275   5.5752
    20.8594  23.1032  23.5310  29.1481  29.9685  34.2090  39.1950  39.9879

     occupation numbers 
     1.0000   1.0000   1.0000   1.0000   1.0000   1.0000   1.0000   1.0000
     0.0000   0.0000   0.0000   0.0000   0.0000   0.0000   0.0000   0.0000

          k = 0.0000-1.0000 0.0000 (  1524 PWs)   bands (ev):

   -73.0572 -34.9848 -34.9321 -34.9321 -11.6177   2.1973   5.1992   5.1992
    19.3058  20.6424  24.3151  30.6435  30.6435  36.9987  38.3262  42.1845

     occupation numbers 
     1.0000   1.0000   1.0000   1.0000   1.0000   1.0000   1.0000   1.0000
     0.0000   0.0000   0.0000   0.0000   0.0000   0.0000   0.0000   0.0000

          k = 0.6667-0.3333 1.0000 (  1492 PWs)   bands (ev):

   -73.0592 -34.9715 -34.9354 -34.9164 -11.8502   2.7995   4.6642   5.5584
    20.7867  21.5735  24.4955  28.5204  30.6797  34.1856  39.3923  40.1189

     occupation numbers 
     1.0000   1.0000   1.0000   1.0000   1.0000   1.0000   1.0000   1.0000
     0.0000   0.0000   0.0000   0.0000   0.0000   0.0000   0.0000   0.0000

          k = 0.5000-0.1667 0.8333 (  1498 PWs)   bands (ev):

   -73.0579 -34.9746 -34.9454 -34.9225 -11.6176   2.7439   3.9849   5.2813
    21.2136  22.7995  23.6693  27.7324  31.9523  33.4031  39.4940  39.9697

     occupation numbers 
     1.0000   1.0000   1.0000   1.0000   1.0000   1.0000   1.0000   1.0000
     0.0000   0.0000   0.0000   0.0000   0.0000   0.0000   0.0000   0.0000

          k =-0.3333-1.0000 0.0000 (  1510 PWs)   bands (ev):

   -73.0571 -34.9715 -34.9451 -34.9339 -11.5621   2.7806   4.2306   4.8445
    21.0001  22.2560  23.4763  27.7973  31.7311  35.9673  37.8518  40.2551

     occupation numbers 
     1.0000   1.0000   1.0000   1.0000   1.0000   1.0000   1.0000   1.0000
     0.0000   0.0000   0.0000   0.0000   0.0000   0.0000   0.0000   0.0000

     highest occupied, lowest unoccupied level (ev):     6.7286   14.9658

!    total energy              =    -140.88599684 Ry
     estimated scf accuracy    <          8.1E-09 Ry

     convergence has been achieved in   2 iterations

     Using ACE for calculation of exact exchange
     ACE projected onto    16 (nbndproj) and applied to    16 (nbnd) bands

!!   total energy              =    -140.88599685 Ry
     Harris-Foulkes estimate   =    -140.88599686 Ry
     est. exchange err (dexx)  =          7.6E-09 Ry
     - averaged Fock potential =      16.54133673 Ry
     + Fock energy (ACE)       =      -8.27069321 Ry

     EXX self-consistency reached

     Writing all to output data dir ./out_qc/mgoqc.save/ :
     XML data file, charge density, pseudopotentials, collected wavefunctions

     init_run     :      0.15s CPU      0.15s WALL (       1 calls)
     electrons    :      1.55s CPU      1.74s WALL (       5 calls)

     Called by init_run:
     aceinit0     :      0.00s CPU      0.00s WALL (       1 calls)
     wfcinit      :      0.03s CPU      0.03s WALL (       1 calls)
     wfcinit:wfcr :      0.03s CPU      0.03s WALL (      16 calls)
     potinit      :      0.01s CPU      0.01s WALL (       1 calls)
     hinit0       :      0.10s CPU      0.11s WALL (       1 calls)

     Called by electrons:
     c_bands      :      1.27s CPU      1.42s WALL (      22 calls)
     sum_band     :      0.19s CPU      0.22s WALL (      22 calls)
     v_of_rho     :      0.09s CPU      0.09s WALL (      24 calls)
     v_h          :      0.00s CPU      0.00s WALL (      24 calls)
     v_xc         :      0.08s CPU      0.09s WALL (      24 calls)
     mix_rho      :      0.00s CPU      0.00s WALL (      22 calls)

     Called by c_bands:
     init_us_2    :      0.03s CPU      0.03s WALL (     720 calls)
     cegterg      :      1.23s CPU      1.38s WALL (     352 calls)

     Called by sum_band:
     sum_band:wei :      0.00s CPU      0.00s WALL (      22 calls)
     sum_band:loo :      0.19s CPU      0.21s WALL (      22 calls)
     sum_band:buf :      0.00s CPU      0.00s WALL (     352 calls)
     sum_band:ini :      0.01s CPU      0.01s WALL (     352 calls)

     Called by *egterg:
     cdiaghg      :      0.15s CPU      0.17s WALL (    1216 calls)
     cegterg:over :      0.05s CPU      0.06s WALL (     928 calls)
     cegterg:upda :      0.02s CPU      0.02s WALL (     928 calls)
     cegterg:last :      0.04s CPU      0.04s WALL (     785 calls)
     h_psi        :      0.95s CPU      1.06s WALL (    1296 calls)
     g_psi        :      0.01s CPU      0.01s WALL (     928 calls)

     Called by h_psi:
     h_psi:calbec :      0.03s CPU      0.04s WALL (    1296 calls)
     vloc_psi     :      0.86s CPU      0.96s WALL (    1296 calls)
                                        0.00s GPU  (    1296 calls)
     add_vuspsi   :      0.01s CPU      0.02s WALL (    1296 calls)

     General routines
     calbec       :      0.07s CPU      0.08s WALL (    2493 calls)
     fft          :      0.10s CPU      0.10s WALL (     233 calls)
     ffts         :      0.00s CPU      0.00s WALL (      22 calls)
     fftw         :      0.90s CPU      1.01s WALL (   35602 calls)
     fftc         :    337.04s CPU    391.33s WALL ( 8847360 calls)
     fftcw        :      0.12s CPU      0.14s WALL (    3840 calls)

     Parallel routines

     EXX routines
     exx_grid     :      0.01s CPU      0.01s WALL (       1 calls)
     exxinit      :      1.70s CPU      2.31s WALL (       5 calls)
     vexx         :    462.78s CPU    536.95s WALL (      80 calls)
     matcalc      :      0.04s CPU      0.04s WALL (    1197 calls)
     aceupdate    :      0.00s CPU      0.00s WALL (      80 calls)
     vexxace      :      0.04s CPU      0.05s WALL (     973 calls)
     aceinit      :    462.79s CPU    536.96s WALL (      80 calls)

     PWSCF        :   7m46.24s CPU   9m 1.24s WALL


   This run was terminated on:   9:48:31  26Jun2026            

=------------------------------------------------------------------------------=
   JOB DONE.
=------------------------------------------------------------------------------=
