
     Program PWSCF v.7.5 starts on 26Jun2026 at  7: 6:14 

     This program is part of the open-source Quantum ESPRESSO suite
     for quantum simulation of materials; please cite
         "P. Giannozzi et al., J. Phys.:Condens. Matter 21 395502 (2009);
         "P. Giannozzi et al., J. Phys.:Condens. Matter 29 465901 (2017);
         "P. Giannozzi et al., J. Chem. Phys. 152 154105 (2020);
          URL http://www.quantum-espresso.org", 
     in publications or presentations arising from this work. More details at
     http://www.quantum-espresso.org/quote

     Parallel version (MPI & OpenMP), running on       4 processor cores
     Number of MPI processes:                 4
     Threads/MPI process:                     1

     MPI processes distributed on     1 nodes
     14124 MiB available memory on the printing compute node when the environment starts

     Reading input from c.qc.in

     Current dimensions of program PWSCF are:
     Max number of different atomic species (ntypx) = 10
     Max number of k-points (npk) =  40000
     Max angular momentum in pseudopotentials (lmaxx) =  4

     IMPORTANT: XC functional enforced from input :
     Exchange-correlation= HSE
                           (   1   4  12   4   0   0   0)
     EXX-fraction              =        0.25
     Any further DFT definition will be discarded
     Please, verify this is what you really want

     EXX Screening parameter changed:    0.9006000
     EXX fraction changed:   1.00
     DD-RSH-CAM (LMODELHF) semilocal: AEXX, BEXX =   0.1850  0.2355
     DD-RSH-CAM (LMODELHF) enabled
     AEXX =  0.1850   BEXX =  0.2355   mu(bohr^-1) =  0.9006

     R & G space division:  proc/nbgrp/npool/nimage =       4
     Subspace diagonalization in iterative solution of the eigenvalue problem:
     a serial algorithm will be used

     EXX: q-point mesh:     6    6    6
     EXX: setup a grid of 216 q-points centered on each k-point
     (k+q)-points:
   0.0000000   0.0000000   0.0000000         1    1
  -0.1666667   0.1666667  -0.1666667         2    1
  -0.3333333   0.3333333  -0.3333333         3    1
   0.5000000  -0.5000000   0.5000000         4    1
   0.3333333  -0.3333333   0.3333333         3   -1
   0.1666667  -0.1666667   0.1666667         2   -1
   0.1666667   0.1666667   0.1666667         2    3
   0.0000000   0.3333333   0.0000000         5    1
  -0.1666667   0.5000000  -0.1666667         6    1
   0.6666667  -0.3333333   0.6666667         7    1
   0.5000000  -0.1666667   0.5000000         8    1
   0.3333333   0.0000000   0.3333333         9    1
   0.3333333   0.3333333   0.3333333         3    3
   0.1666667   0.5000000   0.1666667         6    3
   0.0000000   0.6666667   0.0000000        10    1
   0.8333333  -0.1666667   0.8333333        11    1
   0.6666667   0.0000000   0.6666667        12    1
   0.5000000   0.1666667   0.5000000         8   -3
  -0.5000000  -0.5000000  -0.5000000         4    3
  -0.6666667  -0.3333333  -0.6666667         7    3
  -0.8333333  -0.1666667  -0.8333333        11    3
   0.0000000  -1.0000000   0.0000000        13    1
   0.8333333   0.1666667   0.8333333        11   -3
   0.6666667   0.3333333   0.6666667         7   -3
  -0.3333333  -0.3333333  -0.3333333         3   -3
  -0.5000000  -0.1666667  -0.5000000         8    3
  -0.6666667   0.0000000  -0.6666667        12   -1
  -0.8333333   0.1666667  -0.8333333        11   -1
   0.0000000  -0.6666667   0.0000000        10   -1
  -0.1666667  -0.5000000  -0.1666667         6   -3
  -0.1666667  -0.1666667  -0.1666667         2   -3
  -0.3333333   0.0000000  -0.3333333         9   -1
  -0.5000000   0.1666667  -0.5000000         8   -1
  -0.6666667   0.3333333  -0.6666667         7   -1
   0.1666667  -0.5000000   0.1666667         6   -1
   0.0000000  -0.3333333   0.0000000         5   -1
  -0.1666667  -0.1666667   0.1666667         2    4
  -0.3333333   0.0000000   0.0000000         5   -5
  -0.5000000   0.1666667  -0.1666667         6   -5
   0.3333333  -0.6666667   0.6666667         7   -5
   0.1666667  -0.5000000   0.5000000         8   -5
   0.0000000  -0.3333333   0.3333333         9   -5
   0.0000000   0.0000000   0.3333333         5   13
  -0.1666667   0.1666667   0.1666667         2   -2
  -0.3333333   0.3333333   0.0000000         9   13
  -0.5000000   0.5000000  -0.1666667         8   13
  -0.6666667   0.6666667  -0.3333333         7   13
   0.1666667  -0.1666667   0.5000000         6   13
   0.1666667   0.1666667   0.5000000         6  -16
   0.0000000   0.3333333   0.3333333         9   -6
  -0.1666667   0.5000000   0.1666667         6   -2
   0.6666667  -0.3333333   1.0000000        14    1
   0.5000000  -0.1666667   0.8333333        15    1
  -0.6666667   1.0000000  -0.3333333        14   13
  -0.6666667  -0.6666667  -0.3333333         7  -16
   0.1666667   0.5000000   0.5000000         8    7
  -1.0000000  -0.3333333  -0.6666667        14   -9
   0.8333333  -0.1666667  -0.8333333        11   -2
  -0.3333333  -1.0000000   0.0000000        16    1
   0.5000000   0.1666667   0.8333333        15   -3
  -0.5000000  -0.5000000  -0.1666667         8  -16
   0.3333333   0.6666667   0.6666667         7    7
  -0.8333333  -0.1666667  -0.5000000        15   -9
   0.0000000  -1.0000000   0.3333333        16   -9
   0.8333333   0.1666667  -0.8333333        11    4
   0.6666667   0.3333333   1.0000000        14   -3
  -0.3333333  -0.3333333   0.0000000         9   14
  -0.5000000  -0.1666667  -0.1666667         6    7
   0.3333333  -1.0000000   0.6666667        14   22
  -0.8333333   0.1666667  -0.5000000        15   10
  -1.0000000   0.3333333  -0.6666667        14   10
  -0.1666667  -0.5000000   0.1666667         6    4
  -0.3333333  -0.3333333   0.3333333         3    4
  -0.5000000  -0.1666667   0.1666667         6   -8
  -0.6666667   0.0000000   0.0000000        10   -5
   0.1666667  -0.8333333   0.8333333        11   -5
   0.0000000  -0.6666667   0.6666667        12   -5
  -0.1666667  -0.5000000   0.5000000         8    8
  -0.1666667  -0.1666667   0.5000000         6  -14
  -0.3333333   0.0000000   0.3333333         9    2
  -0.5000000   0.1666667   0.1666667         6    6
   0.3333333  -0.6666667   1.0000000        14   -5
   0.1666667  -0.5000000   0.8333333        15   -5
   1.0000000   0.6666667  -0.3333333        14   17
   0.0000000   0.0000000   0.6666667        10   13
  -0.1666667   0.1666667   0.5000000         6   15
  -0.3333333   0.3333333   0.3333333         3   -2
  -0.5000000   0.5000000   0.1666667         8  -15
  -0.6666667   0.6666667   0.0000000        12   13
  -0.8333333   0.8333333  -0.1666667        11   13
  -0.8333333  -0.8333333  -0.1666667        11  -16
  -1.0000000  -0.6666667  -0.3333333        14   18
  -0.1666667   0.5000000   0.5000000         8   -6
   0.6666667  -0.3333333  -0.6666667         7   -2
   0.5000000  -0.1666667  -0.8333333        15   -2
   0.3333333   0.0000000  -1.0000000        16   13
  -0.6666667  -0.6666667   0.0000000        12   14
   0.1666667   0.5000000   0.8333333        15    7
   0.0000000   0.6666667   0.6666667        12   -6
   0.8333333  -0.1666667  -0.5000000        15   12
   0.6666667   0.0000000  -0.6666667        12   -2
   0.5000000   0.1666667  -0.8333333        15    4
  -0.5000000  -0.5000000   0.1666667         8   14
   0.3333333   0.6666667   1.0000000        14    7
   0.1666667   0.8333333   0.8333333        11    7
  -1.0000000   0.0000000  -0.3333333        16   21
   0.8333333   0.1666667  -0.5000000        15  -11
   0.6666667   0.3333333  -0.6666667         7    4
   0.5000000   0.5000000  -0.5000000         4    4
   0.3333333   0.6666667  -0.6666667         7   -8
   0.1666667   0.8333333  -0.8333333        11   -8
  -1.0000000   0.0000000   0.0000000        13    5
  -0.1666667  -0.8333333   0.8333333        11    8
  -0.3333333  -0.6666667   0.6666667         7    8
   0.6666667   0.6666667  -0.3333333         7  -14
  -0.5000000  -0.1666667   0.5000000         8   -4
   0.3333333  -1.0000000  -0.6666667        14  -21
   0.1666667  -0.8333333  -0.8333333        11    6
   1.0000000   0.3333333   0.0000000        16   -5
  -0.1666667  -0.5000000   0.8333333        15    8
   0.8333333   0.8333333  -0.1666667        11  -14
   0.6666667   1.0000000  -0.3333333        14  -14
  -0.5000000   0.1666667   0.5000000         8    2
   0.3333333  -0.6666667  -0.6666667         7    6
   0.1666667  -0.5000000  -0.8333333        15    6
   0.0000000  -0.3333333  -1.0000000        16   17
   0.0000000   0.0000000  -1.0000000        13   13
   0.8333333  -0.8333333  -0.1666667        11   15
   0.6666667  -0.6666667  -0.3333333         7   15
  -0.5000000   0.5000000   0.5000000         4    2
  -0.6666667   0.6666667   0.3333333         7  -15
  -0.8333333   0.8333333   0.1666667        11  -15
  -0.8333333  -0.8333333   0.1666667        11   14
   0.0000000   0.3333333   1.0000000        16  -17
  -0.1666667   0.5000000   0.8333333        15   -6
  -0.3333333   0.6666667   0.6666667         7   -6
   0.5000000  -0.1666667  -0.5000000         8   -2
  -0.6666667  -1.0000000   0.3333333        14   14
  -0.6666667  -0.6666667   0.3333333         7   14
   0.1666667   0.5000000  -0.8333333        15   -8
  -1.0000000  -0.3333333   0.0000000        16    5
  -0.1666667   0.8333333   0.8333333        11   -6
  -0.3333333   1.0000000   0.6666667        14   21
   0.5000000   0.1666667  -0.5000000         8    4
   0.3333333   0.3333333  -0.3333333         3   -4
   0.1666667   0.5000000  -0.5000000         8   -8
   0.0000000   0.6666667  -0.6666667        12    5
  -0.1666667   0.8333333  -0.8333333        11    5
   0.6666667   0.0000000   0.0000000        10    5
   0.5000000   0.1666667  -0.1666667         6    8
   0.5000000   0.5000000  -0.1666667         8  -14
  -0.6666667  -0.3333333   0.6666667         7   -4
  -0.8333333  -0.1666667   0.5000000        15   11
   1.0000000   0.0000000   0.3333333        16  -21
  -0.1666667  -0.8333333  -0.8333333        11   -7
  -0.3333333  -0.6666667  -1.0000000        14   -7
   0.6666667   0.6666667   0.0000000        12  -14
  -0.5000000  -0.1666667   0.8333333        15   -4
  -0.6666667   0.0000000   0.6666667        12    2
  -0.8333333   0.1666667   0.5000000        15  -12
   0.0000000  -0.6666667  -0.6666667        12    6
  -0.1666667  -0.5000000  -0.8333333        15   -7
   0.8333333   0.8333333   0.1666667        11   16
  -0.3333333   0.0000000   1.0000000        16  -13
  -0.5000000   0.1666667   0.8333333        15    2
  -0.6666667   0.3333333   0.6666667         7    2
   0.1666667  -0.5000000  -0.5000000         8    6
   1.0000000   0.6666667   0.3333333        14  -18
   0.0000000   0.0000000  -0.6666667        10  -13
   0.8333333  -0.8333333   0.1666667        11  -13
   0.6666667  -0.6666667   0.0000000        12  -13
   0.5000000  -0.5000000  -0.1666667         8   15
   0.3333333  -0.3333333  -0.3333333         3    2
   0.1666667  -0.1666667  -0.5000000         6  -15
   0.1666667   0.1666667  -0.5000000         6   14
  -1.0000000  -0.6666667   0.3333333        14  -17
  -0.1666667   0.5000000  -0.8333333        15    5
  -0.3333333   0.6666667  -1.0000000        14    5
   0.5000000  -0.1666667  -0.1666667         6   -6
   0.3333333   0.0000000  -0.3333333         9   -2
   0.1666667   0.1666667  -0.1666667         2   -4
   0.0000000   0.3333333  -0.3333333         9    5
  -0.1666667   0.5000000  -0.5000000         8    5
  -0.3333333   0.6666667  -0.6666667         7    5
   0.5000000  -0.1666667   0.1666667         6    5
   0.3333333   0.0000000   0.0000000         5    5
   0.3333333   0.3333333   0.0000000         9  -14
   0.1666667   0.5000000  -0.1666667         6   -4
   1.0000000  -0.3333333   0.6666667        14  -10
   0.8333333  -0.1666667   0.5000000        15  -10
  -0.3333333   1.0000000  -0.6666667        14  -22
   0.5000000   0.1666667   0.1666667         6   -7
   0.5000000   0.5000000   0.1666667         8   16
  -0.6666667  -0.3333333  -1.0000000        14    3
  -0.8333333  -0.1666667   0.8333333        11   -4
   0.0000000   1.0000000  -0.3333333        16    9
   0.8333333   0.1666667   0.5000000        15    9
  -0.3333333  -0.6666667  -0.6666667         7   -7
   0.6666667   0.6666667   0.3333333         7   16
  -0.5000000  -0.1666667  -0.8333333        15    3
   0.3333333   1.0000000   0.0000000        16   -1
  -0.8333333   0.1666667   0.8333333        11    2
   1.0000000   0.3333333   0.6666667        14    9
  -0.1666667  -0.5000000  -0.5000000         8   -7
  -0.1666667  -0.1666667  -0.5000000         6   16
   0.6666667  -1.0000000   0.3333333        14  -13
  -0.5000000   0.1666667  -0.8333333        15   -1
  -0.6666667   0.3333333  -1.0000000        14   -1
   0.1666667  -0.5000000  -0.1666667         6    2
   0.0000000  -0.3333333  -0.3333333         9    6
   0.0000000   0.0000000  -0.3333333         5  -13
  -0.1666667   0.1666667  -0.5000000         6  -13
   0.6666667  -0.6666667   0.3333333         7  -13
   0.5000000  -0.5000000   0.1666667         8  -13
   0.3333333  -0.3333333   0.0000000         9  -13
   0.1666667  -0.1666667  -0.1666667         2    2

     Parallelization info
     --------------------
     sticks:   dense  smooth     PW     G-vecs:    dense   smooth      PW
     Min         124     124     40                 1845     1845     340
     Max         125     125     41                 1849     1849     342
     Sum         499     499    163                 7391     7391    1363

     Using Slab Decomposition



     bravais-lattice index     =            2
     lattice parameter (alat)  =       6.7410  a.u.
     unit-cell volume          =      76.5796 (a.u.)^3
     number of atoms/cell      =            2
     number of atomic types    =            1
     number of electrons       =         8.00
     number of Kohn-Sham states=           12
     kinetic-energy cutoff     =      80.0000  Ry
     charge density cutoff     =     320.0000  Ry
     cutoff for Fock operator  =     320.0000  Ry
     scf convergence threshold =      1.0E-08
     mixing beta               =       0.7000
     number of iterations used =            8  plain     mixing
     Exchange-correlation= HSE
                           (   1   4  12   4   0   0   0)
     EXX-fraction              =        1.00

     celldm(1)=   6.741000  celldm(2)=   0.000000  celldm(3)=   0.000000
     celldm(4)=   0.000000  celldm(5)=   0.000000  celldm(6)=   0.000000

     crystal axes: (cart. coord. in units of alat)
               a(1) = (  -0.500000   0.000000   0.500000 )  
               a(2) = (   0.000000   0.500000   0.500000 )  
               a(3) = (  -0.500000   0.500000   0.000000 )  

     reciprocal axes: (cart. coord. in units 2 pi/alat)
               b(1) = ( -1.000000 -1.000000  1.000000 )  
               b(2) = (  1.000000  1.000000  1.000000 )  
               b(3) = ( -1.000000  1.000000 -1.000000 )  


     PseudoPot. # 1 for C  read from file:
     ../../../../pseudos/C_ONCV_PBE-1.2.upf
     MD5 check sum: 1a5f83a7b1f58d24996abe00ed223ac6
     Pseudo is Norm-conserving, Zval =  4.0
     Generated using ONCVPSP code by D. R. Hamann
     Using radial grid of  602 points,  4 beta functions with: 
                l(1) =   0
                l(2) =   0
                l(3) =   1
                l(4) =   1

     atomic species   valence    mass     pseudopotential
     C                 4.00    12.01100     C ( 1.00)

     48 Sym. Ops., with inversion, found (24 have fractional translation)


                                    s                        frac. trans.

      isym =  1     identity                                     

 cryst.   s( 1) = (     1          0          0      )
                  (     0          1          0      )
                  (     0          0          1      )

 cart.    s( 1) = (  1.0000000  0.0000000  0.0000000 )
                  (  0.0000000  1.0000000  0.0000000 )
                  (  0.0000000  0.0000000  1.0000000 )


      isym =  2     180 deg rotation - cart. axis [0,0,1]        

 cryst.   s( 2) = (     0          1         -1      )
                  (     1          0         -1      )
                  (     0          0         -1      )

 cart.    s( 2) = ( -1.0000000  0.0000000  0.0000000 )
                  (  0.0000000 -1.0000000  0.0000000 )
                  (  0.0000000  0.0000000  1.0000000 )


      isym =  3     180 deg rotation - cart. axis [0,1,0]        

 cryst.   s( 3) = (    -1          0          0      )
                  (    -1          0          1      )
                  (    -1          1          0      )

 cart.    s( 3) = ( -1.0000000  0.0000000  0.0000000 )
                  (  0.0000000  1.0000000  0.0000000 )
                  (  0.0000000  0.0000000 -1.0000000 )


      isym =  4     180 deg rotation - cart. axis [1,0,0]        

 cryst.   s( 4) = (     0         -1          1      )
                  (     0         -1          0      )
                  (     1         -1          0      )

 cart.    s( 4) = (  1.0000000  0.0000000  0.0000000 )
                  (  0.0000000 -1.0000000  0.0000000 )
                  (  0.0000000  0.0000000 -1.0000000 )


      isym =  5     180 deg rotation - cart. axis [1,1,0]        

 cryst.   s( 5) = (     0         -1          0      )    f =( -0.2500000 )
                  (    -1          0          0      )       ( -0.2500000 )
                  (     0          0         -1      )       ( -0.2500000 )

 cart.    s( 5) = (  0.0000000  1.0000000  0.0000000 )    f =(  0.2500000 )
                  (  1.0000000  0.0000000  0.0000000 )       ( -0.2500000 )
                  (  0.0000000  0.0000000 -1.0000000 )       ( -0.2500000 )


      isym =  6     180 deg rotation - cart. axis [1,-1,0]       

 cryst.   s( 6) = (    -1          0          1      )    f =( -0.2500000 )
                  (     0         -1          1      )       ( -0.2500000 )
                  (     0          0          1      )       ( -0.2500000 )

 cart.    s( 6) = (  0.0000000 -1.0000000  0.0000000 )    f =(  0.2500000 )
                  ( -1.0000000  0.0000000  0.0000000 )       ( -0.2500000 )
                  (  0.0000000  0.0000000 -1.0000000 )       ( -0.2500000 )


      isym =  7      90 deg rotation - cart. axis [0,0,-1]       

 cryst.   s( 7) = (     0          1          0      )    f =( -0.2500000 )
                  (     0          1         -1      )       ( -0.2500000 )
                  (    -1          1          0      )       ( -0.2500000 )

 cart.    s( 7) = (  0.0000000  1.0000000  0.0000000 )    f =(  0.2500000 )
                  ( -1.0000000  0.0000000  0.0000000 )       ( -0.2500000 )
                  (  0.0000000  0.0000000  1.0000000 )       ( -0.2500000 )


      isym =  8      90 deg rotation - cart. axis [0,0,1]        

 cryst.   s( 8) = (     1          0         -1      )    f =( -0.2500000 )
                  (     1          0          0      )       ( -0.2500000 )
                  (     1         -1          0      )       ( -0.2500000 )

 cart.    s( 8) = (  0.0000000 -1.0000000  0.0000000 )    f =(  0.2500000 )
                  (  1.0000000  0.0000000  0.0000000 )       ( -0.2500000 )
                  (  0.0000000  0.0000000  1.0000000 )       ( -0.2500000 )


      isym =  9     180 deg rotation - cart. axis [1,0,1]        

 cryst.   s( 9) = (    -1          0          0      )    f =( -0.2500000 )
                  (     0          0         -1      )       ( -0.2500000 )
                  (     0         -1          0      )       ( -0.2500000 )

 cart.    s( 9) = (  0.0000000  0.0000000  1.0000000 )    f =(  0.2500000 )
                  (  0.0000000 -1.0000000  0.0000000 )       ( -0.2500000 )
                  (  1.0000000  0.0000000  0.0000000 )       ( -0.2500000 )


      isym = 10     180 deg rotation - cart. axis [-1,0,1]       

 cryst.   s(10) = (     1          0          0      )    f =( -0.2500000 )
                  (     1         -1          0      )       ( -0.2500000 )
                  (     1          0         -1      )       ( -0.2500000 )

 cart.    s(10) = (  0.0000000  0.0000000 -1.0000000 )    f =(  0.2500000 )
                  (  0.0000000 -1.0000000  0.0000000 )       ( -0.2500000 )
                  ( -1.0000000  0.0000000  0.0000000 )       ( -0.2500000 )


      isym = 11      90 deg rotation - cart. axis [0,1,0]        

 cryst.   s(11) = (     0          1         -1      )    f =( -0.2500000 )
                  (    -1          1          0      )       ( -0.2500000 )
                  (     0          1          0      )       ( -0.2500000 )

 cart.    s(11) = (  0.0000000  0.0000000  1.0000000 )    f =(  0.2500000 )
                  (  0.0000000  1.0000000  0.0000000 )       ( -0.2500000 )
                  ( -1.0000000  0.0000000  0.0000000 )       ( -0.2500000 )


      isym = 12      90 deg rotation - cart. axis [0,-1,0]       

 cryst.   s(12) = (     0         -1          1      )    f =( -0.2500000 )
                  (     0          0          1      )       ( -0.2500000 )
                  (    -1          0          1      )       ( -0.2500000 )

 cart.    s(12) = (  0.0000000  0.0000000 -1.0000000 )    f =(  0.2500000 )
                  (  0.0000000  1.0000000  0.0000000 )       ( -0.2500000 )
                  (  1.0000000  0.0000000  0.0000000 )       ( -0.2500000 )


      isym = 13     180 deg rotation - cart. axis [0,1,1]        

 cryst.   s(13) = (    -1          1          0      )    f =( -0.2500000 )
                  (     0          1          0      )       ( -0.2500000 )
                  (     0          1         -1      )       ( -0.2500000 )

 cart.    s(13) = ( -1.0000000  0.0000000  0.0000000 )    f =(  0.2500000 )
                  (  0.0000000  0.0000000  1.0000000 )       ( -0.2500000 )
                  (  0.0000000  1.0000000  0.0000000 )       ( -0.2500000 )


      isym = 14     180 deg rotation - cart. axis [0,1,-1]       

 cryst.   s(14) = (     0          0         -1      )    f =( -0.2500000 )
                  (     0         -1          0      )       ( -0.2500000 )
                  (    -1          0          0      )       ( -0.2500000 )

 cart.    s(14) = ( -1.0000000  0.0000000  0.0000000 )    f =(  0.2500000 )
                  (  0.0000000  0.0000000 -1.0000000 )       ( -0.2500000 )
                  (  0.0000000 -1.0000000  0.0000000 )       ( -0.2500000 )


      isym = 15      90 deg rotation - cart. axis [-1,0,0]       

 cryst.   s(15) = (     0          0          1      )    f =( -0.2500000 )
                  (    -1          0          1      )       ( -0.2500000 )
                  (     0         -1          1      )       ( -0.2500000 )

 cart.    s(15) = (  1.0000000  0.0000000  0.0000000 )    f =(  0.2500000 )
                  (  0.0000000  0.0000000  1.0000000 )       ( -0.2500000 )
                  (  0.0000000 -1.0000000  0.0000000 )       ( -0.2500000 )


      isym = 16      90 deg rotation - cart. axis [1,0,0]        

 cryst.   s(16) = (     1         -1          0      )    f =( -0.2500000 )
                  (     1          0         -1      )       ( -0.2500000 )
                  (     1          0          0      )       ( -0.2500000 )

 cart.    s(16) = (  1.0000000  0.0000000  0.0000000 )    f =(  0.2500000 )
                  (  0.0000000  0.0000000 -1.0000000 )       ( -0.2500000 )
                  (  0.0000000  1.0000000  0.0000000 )       ( -0.2500000 )


      isym = 17     120 deg rotation - cart. axis [-1,-1,-1]     

 cryst.   s(17) = (    -1          0          1      )
                  (    -1          1          0      )
                  (    -1          0          0      )

 cart.    s(17) = (  0.0000000  1.0000000  0.0000000 )
                  (  0.0000000  0.0000000  1.0000000 )
                  (  1.0000000  0.0000000  0.0000000 )


      isym = 18     120 deg rotation - cart. axis [-1,1,1]       

 cryst.   s(18) = (     0          1          0      )
                  (     0          0          1      )
                  (     1          0          0      )

 cart.    s(18) = (  0.0000000 -1.0000000  0.0000000 )
                  (  0.0000000  0.0000000  1.0000000 )
                  ( -1.0000000  0.0000000  0.0000000 )


      isym = 19     120 deg rotation - cart. axis [1,1,-1]       

 cryst.   s(19) = (     1          0         -1      )
                  (     0          0         -1      )
                  (     0          1         -1      )

 cart.    s(19) = (  0.0000000  1.0000000  0.0000000 )
                  (  0.0000000  0.0000000 -1.0000000 )
                  ( -1.0000000  0.0000000  0.0000000 )


      isym = 20     120 deg rotation - cart. axis [1,-1,1]       

 cryst.   s(20) = (     0         -1          0      )
                  (     1         -1          0      )
                  (     0         -1          1      )

 cart.    s(20) = (  0.0000000 -1.0000000  0.0000000 )
                  (  0.0000000  0.0000000 -1.0000000 )
                  (  1.0000000  0.0000000  0.0000000 )


      isym = 21     120 deg rotation - cart. axis [1,1,1]        

 cryst.   s(21) = (     0          0         -1      )
                  (     0          1         -1      )
                  (     1          0         -1      )

 cart.    s(21) = (  0.0000000  0.0000000  1.0000000 )
                  (  1.0000000  0.0000000  0.0000000 )
                  (  0.0000000  1.0000000  0.0000000 )


      isym = 22     120 deg rotation - cart. axis [-1,1,-1]      

 cryst.   s(22) = (    -1          1          0      )
                  (    -1          0          0      )
                  (    -1          0          1      )

 cart.    s(22) = (  0.0000000  0.0000000  1.0000000 )
                  ( -1.0000000  0.0000000  0.0000000 )
                  (  0.0000000 -1.0000000  0.0000000 )


      isym = 23     120 deg rotation - cart. axis [1,-1,-1]      

 cryst.   s(23) = (     0          0          1      )
                  (     1          0          0      )
                  (     0          1          0      )

 cart.    s(23) = (  0.0000000  0.0000000 -1.0000000 )
                  ( -1.0000000  0.0000000  0.0000000 )
                  (  0.0000000  1.0000000  0.0000000 )


      isym = 24     120 deg rotation - cart. axis [-1,-1,1]      

 cryst.   s(24) = (     1         -1          0      )
                  (     0         -1          1      )
                  (     0         -1          0      )

 cart.    s(24) = (  0.0000000  0.0000000 -1.0000000 )
                  (  1.0000000  0.0000000  0.0000000 )
                  (  0.0000000 -1.0000000  0.0000000 )


      isym = 25     inversion                                    

 cryst.   s(25) = (    -1          0          0      )    f =( -0.2500000 )
                  (     0         -1          0      )       ( -0.2500000 )
                  (     0          0         -1      )       ( -0.2500000 )

 cart.    s(25) = ( -1.0000000  0.0000000  0.0000000 )    f =(  0.2500000 )
                  (  0.0000000 -1.0000000  0.0000000 )       ( -0.2500000 )
                  (  0.0000000  0.0000000 -1.0000000 )       ( -0.2500000 )


      isym = 26     inv. 180 deg rotation - cart. axis [0,0,1]   

 cryst.   s(26) = (     0         -1          1      )    f =( -0.2500000 )
                  (    -1          0          1      )       ( -0.2500000 )
                  (     0          0          1      )       ( -0.2500000 )

 cart.    s(26) = (  1.0000000  0.0000000  0.0000000 )    f =(  0.2500000 )
                  (  0.0000000  1.0000000  0.0000000 )       ( -0.2500000 )
                  (  0.0000000  0.0000000 -1.0000000 )       ( -0.2500000 )


      isym = 27     inv. 180 deg rotation - cart. axis [0,1,0]   

 cryst.   s(27) = (     1          0          0      )    f =( -0.2500000 )
                  (     1          0         -1      )       ( -0.2500000 )
                  (     1         -1          0      )       ( -0.2500000 )

 cart.    s(27) = (  1.0000000  0.0000000  0.0000000 )    f =(  0.2500000 )
                  (  0.0000000 -1.0000000  0.0000000 )       ( -0.2500000 )
                  (  0.0000000  0.0000000  1.0000000 )       ( -0.2500000 )


      isym = 28     inv. 180 deg rotation - cart. axis [1,0,0]   

 cryst.   s(28) = (     0          1         -1      )    f =( -0.2500000 )
                  (     0          1          0      )       ( -0.2500000 )
                  (    -1          1          0      )       ( -0.2500000 )

 cart.    s(28) = ( -1.0000000  0.0000000  0.0000000 )    f =(  0.2500000 )
                  (  0.0000000  1.0000000  0.0000000 )       ( -0.2500000 )
                  (  0.0000000  0.0000000  1.0000000 )       ( -0.2500000 )


      isym = 29     inv. 180 deg rotation - cart. axis [1,1,0]   

 cryst.   s(29) = (     0          1          0      )
                  (     1          0          0      )
                  (     0          0          1      )

 cart.    s(29) = (  0.0000000 -1.0000000  0.0000000 )
                  ( -1.0000000  0.0000000  0.0000000 )
                  (  0.0000000  0.0000000  1.0000000 )


      isym = 30     inv. 180 deg rotation - cart. axis [1,-1,0]  

 cryst.   s(30) = (     1          0         -1      )
                  (     0          1         -1      )
                  (     0          0         -1      )

 cart.    s(30) = (  0.0000000  1.0000000  0.0000000 )
                  (  1.0000000  0.0000000  0.0000000 )
                  (  0.0000000  0.0000000  1.0000000 )


      isym = 31     inv.  90 deg rotation - cart. axis [0,0,-1]  

 cryst.   s(31) = (     0         -1          0      )
                  (     0         -1          1      )
                  (     1         -1          0      )

 cart.    s(31) = (  0.0000000 -1.0000000  0.0000000 )
                  (  1.0000000  0.0000000  0.0000000 )
                  (  0.0000000  0.0000000 -1.0000000 )


      isym = 32     inv.  90 deg rotation - cart. axis [0,0,1]   

 cryst.   s(32) = (    -1          0          1      )
                  (    -1          0          0      )
                  (    -1          1          0      )

 cart.    s(32) = (  0.0000000  1.0000000  0.0000000 )
                  ( -1.0000000  0.0000000  0.0000000 )
                  (  0.0000000  0.0000000 -1.0000000 )


      isym = 33     inv. 180 deg rotation - cart. axis [1,0,1]   

 cryst.   s(33) = (     1          0          0      )
                  (     0          0          1      )
                  (     0          1          0      )

 cart.    s(33) = (  0.0000000  0.0000000 -1.0000000 )
                  (  0.0000000  1.0000000  0.0000000 )
                  ( -1.0000000  0.0000000  0.0000000 )


      isym = 34     inv. 180 deg rotation - cart. axis [-1,0,1]  

 cryst.   s(34) = (    -1          0          0      )
                  (    -1          1          0      )
                  (    -1          0          1      )

 cart.    s(34) = (  0.0000000  0.0000000  1.0000000 )
                  (  0.0000000  1.0000000  0.0000000 )
                  (  1.0000000  0.0000000  0.0000000 )


      isym = 35     inv.  90 deg rotation - cart. axis [0,1,0]   

 cryst.   s(35) = (     0         -1          1      )
                  (     1         -1          0      )
                  (     0         -1          0      )

 cart.    s(35) = (  0.0000000  0.0000000 -1.0000000 )
                  (  0.0000000 -1.0000000  0.0000000 )
                  (  1.0000000  0.0000000  0.0000000 )


      isym = 36     inv.  90 deg rotation - cart. axis [0,-1,0]  

 cryst.   s(36) = (     0          1         -1      )
                  (     0          0         -1      )
                  (     1          0         -1      )

 cart.    s(36) = (  0.0000000  0.0000000  1.0000000 )
                  (  0.0000000 -1.0000000  0.0000000 )
                  ( -1.0000000  0.0000000  0.0000000 )


      isym = 37     inv. 180 deg rotation - cart. axis [0,1,1]   

 cryst.   s(37) = (     1         -1          0      )
                  (     0         -1          0      )
                  (     0         -1          1      )

 cart.    s(37) = (  1.0000000  0.0000000  0.0000000 )
                  (  0.0000000  0.0000000 -1.0000000 )
                  (  0.0000000 -1.0000000  0.0000000 )


      isym = 38     inv. 180 deg rotation - cart. axis [0,1,-1]  

 cryst.   s(38) = (     0          0          1      )
                  (     0          1          0      )
                  (     1          0          0      )

 cart.    s(38) = (  1.0000000  0.0000000  0.0000000 )
                  (  0.0000000  0.0000000  1.0000000 )
                  (  0.0000000  1.0000000  0.0000000 )


      isym = 39     inv.  90 deg rotation - cart. axis [-1,0,0]  

 cryst.   s(39) = (     0          0         -1      )
                  (     1          0         -1      )
                  (     0          1         -1      )

 cart.    s(39) = ( -1.0000000  0.0000000  0.0000000 )
                  (  0.0000000  0.0000000 -1.0000000 )
                  (  0.0000000  1.0000000  0.0000000 )


      isym = 40     inv.  90 deg rotation - cart. axis [1,0,0]   

 cryst.   s(40) = (    -1          1          0      )
                  (    -1          0          1      )
                  (    -1          0          0      )

 cart.    s(40) = ( -1.0000000  0.0000000  0.0000000 )
                  (  0.0000000  0.0000000  1.0000000 )
                  (  0.0000000 -1.0000000  0.0000000 )


      isym = 41     inv. 120 deg rotation - cart. axis [-1,-1,-1]

 cryst.   s(41) = (     1          0         -1      )    f =( -0.2500000 )
                  (     1         -1          0      )       ( -0.2500000 )
                  (     1          0          0      )       ( -0.2500000 )

 cart.    s(41) = (  0.0000000 -1.0000000  0.0000000 )    f =(  0.2500000 )
                  (  0.0000000  0.0000000 -1.0000000 )       ( -0.2500000 )
                  ( -1.0000000  0.0000000  0.0000000 )       ( -0.2500000 )


      isym = 42     inv. 120 deg rotation - cart. axis [-1,1,1]  

 cryst.   s(42) = (     0         -1          0      )    f =( -0.2500000 )
                  (     0          0         -1      )       ( -0.2500000 )
                  (    -1          0          0      )       ( -0.2500000 )

 cart.    s(42) = (  0.0000000  1.0000000  0.0000000 )    f =(  0.2500000 )
                  (  0.0000000  0.0000000 -1.0000000 )       ( -0.2500000 )
                  (  1.0000000  0.0000000  0.0000000 )       ( -0.2500000 )


      isym = 43     inv. 120 deg rotation - cart. axis [1,1,-1]  

 cryst.   s(43) = (    -1          0          1      )    f =( -0.2500000 )
                  (     0          0          1      )       ( -0.2500000 )
                  (     0         -1          1      )       ( -0.2500000 )

 cart.    s(43) = (  0.0000000 -1.0000000  0.0000000 )    f =(  0.2500000 )
                  (  0.0000000  0.0000000  1.0000000 )       ( -0.2500000 )
                  (  1.0000000  0.0000000  0.0000000 )       ( -0.2500000 )


      isym = 44     inv. 120 deg rotation - cart. axis [1,-1,1]  

 cryst.   s(44) = (     0          1          0      )    f =( -0.2500000 )
                  (    -1          1          0      )       ( -0.2500000 )
                  (     0          1         -1      )       ( -0.2500000 )

 cart.    s(44) = (  0.0000000  1.0000000  0.0000000 )    f =(  0.2500000 )
                  (  0.0000000  0.0000000  1.0000000 )       ( -0.2500000 )
                  ( -1.0000000  0.0000000  0.0000000 )       ( -0.2500000 )


      isym = 45     inv. 120 deg rotation - cart. axis [1,1,1]   

 cryst.   s(45) = (     0          0          1      )    f =( -0.2500000 )
                  (     0         -1          1      )       ( -0.2500000 )
                  (    -1          0          1      )       ( -0.2500000 )

 cart.    s(45) = (  0.0000000  0.0000000 -1.0000000 )    f =(  0.2500000 )
                  ( -1.0000000  0.0000000  0.0000000 )       ( -0.2500000 )
                  (  0.0000000 -1.0000000  0.0000000 )       ( -0.2500000 )


      isym = 46     inv. 120 deg rotation - cart. axis [-1,1,-1] 

 cryst.   s(46) = (     1         -1          0      )    f =( -0.2500000 )
                  (     1          0          0      )       ( -0.2500000 )
                  (     1          0         -1      )       ( -0.2500000 )

 cart.    s(46) = (  0.0000000  0.0000000 -1.0000000 )    f =(  0.2500000 )
                  (  1.0000000  0.0000000  0.0000000 )       ( -0.2500000 )
                  (  0.0000000  1.0000000  0.0000000 )       ( -0.2500000 )


      isym = 47     inv. 120 deg rotation - cart. axis [1,-1,-1] 

 cryst.   s(47) = (     0          0         -1      )    f =( -0.2500000 )
                  (    -1          0          0      )       ( -0.2500000 )
                  (     0         -1          0      )       ( -0.2500000 )

 cart.    s(47) = (  0.0000000  0.0000000  1.0000000 )    f =(  0.2500000 )
                  (  1.0000000  0.0000000  0.0000000 )       ( -0.2500000 )
                  (  0.0000000 -1.0000000  0.0000000 )       ( -0.2500000 )


      isym = 48     inv. 120 deg rotation - cart. axis [-1,-1,1] 

 cryst.   s(48) = (    -1          1          0      )    f =( -0.2500000 )
                  (     0          1         -1      )       ( -0.2500000 )
                  (     0          1          0      )       ( -0.2500000 )

 cart.    s(48) = (  0.0000000  0.0000000  1.0000000 )    f =(  0.2500000 )
                  ( -1.0000000  0.0000000  0.0000000 )       ( -0.2500000 )
                  (  0.0000000  1.0000000  0.0000000 )       ( -0.2500000 )


     point group O_h (m-3m) 
     there are 10 classes
     the character table:

       E     8C3   3C2   6C4   6C2'  i     8S6   3s_h  6S4   6s_d 
A_1g   1.00  1.00  1.00  1.00  1.00  1.00  1.00  1.00  1.00  1.00
A_2g   1.00  1.00  1.00 -1.00 -1.00  1.00  1.00  1.00 -1.00 -1.00
E_g    2.00 -1.00  2.00  0.00  0.00  2.00 -1.00  2.00  0.00  0.00
T_1g   3.00  0.00 -1.00  1.00 -1.00  3.00  0.00 -1.00  1.00 -1.00
T_2g   3.00  0.00 -1.00 -1.00  1.00  3.00  0.00 -1.00 -1.00  1.00
A_1u   1.00  1.00  1.00  1.00  1.00 -1.00 -1.00 -1.00 -1.00 -1.00
A_2u   1.00  1.00  1.00 -1.00 -1.00 -1.00 -1.00 -1.00  1.00  1.00
E_u    2.00 -1.00  2.00  0.00  0.00 -2.00  1.00 -2.00  0.00  0.00
T_1u   3.00  0.00 -1.00  1.00 -1.00 -3.00  0.00  1.00 -1.00  1.00
T_2u   3.00  0.00 -1.00 -1.00  1.00 -3.00  0.00  1.00  1.00 -1.00

     the symmetry operations in each class and the name of the first element:

     E        1
          identity                                               
     8C3     17   19   20   18   24   21   22   23
          120 deg rotation - cart. axis [-1,-1,-1]               
     3C2      2    4    3
          180 deg rotation - cart. axis [0,0,1]                  
     6C4      7    8   15   16   12   11
           90 deg rotation - cart. axis [0,0,-1]                 
     6C2'     5    6   14   13   10    9
          180 deg rotation - cart. axis [1,1,0]                  
     i       25
          inversion                                              
     8S6     41   43   44   42   48   45   46   47
          inv. 120 deg rotation - cart. axis [-1,-1,-1]          
     3s_h    26   28   27
          inv. 180 deg rotation - cart. axis [0,0,1]             
     6S4     31   32   39   40   36   35
          inv.  90 deg rotation - cart. axis [0,0,-1]            
     6s_d    29   30   38   37   34   33
          inv. 180 deg rotation - cart. axis [1,1,0]             

   Cartesian axes

     site n.     atom                  positions (alat units)
         1        C      tau(   1) = (   0.0000000   0.0000000   0.0000000  )
         2        C      tau(   2) = (  -0.2500000   0.2500000   0.2500000  )

   Crystallographic axes

     site n.     atom                  positions (cryst. coord.)
         1        C      tau(   1) = (  0.0000000  0.0000000  0.0000000  )
         2        C      tau(   2) = (  0.2500000  0.2500000  0.2500000  )

     number of k points=    16
                       cart. coord. in units 2pi/alat
        k(    1) = (   0.0000000   0.0000000   0.0000000), wk =   0.0092593
        k(    2) = (  -0.1666667   0.1666667  -0.1666667), wk =   0.0740741
        k(    3) = (  -0.3333333   0.3333333  -0.3333333), wk =   0.0740741
        k(    4) = (   0.5000000  -0.5000000   0.5000000), wk =   0.0370370
        k(    5) = (   0.0000000   0.3333333   0.0000000), wk =   0.0555556
        k(    6) = (  -0.1666667   0.5000000  -0.1666667), wk =   0.2222222
        k(    7) = (   0.6666667  -0.3333333   0.6666667), wk =   0.2222222
        k(    8) = (   0.5000000  -0.1666667   0.5000000), wk =   0.2222222
        k(    9) = (   0.3333333   0.0000000   0.3333333), wk =   0.1111111
        k(   10) = (   0.0000000   0.6666667   0.0000000), wk =   0.0555556
        k(   11) = (   0.8333333  -0.1666667   0.8333333), wk =   0.2222222
        k(   12) = (   0.6666667  -0.0000000   0.6666667), wk =   0.1111111
        k(   13) = (   0.0000000  -1.0000000   0.0000000), wk =   0.0277778
        k(   14) = (   0.6666667  -0.3333333   1.0000000), wk =   0.2222222
        k(   15) = (   0.5000000  -0.1666667   0.8333333), wk =   0.2222222
        k(   16) = (  -0.3333333  -1.0000000   0.0000000), wk =   0.1111111

                       cryst. coord.
        k(    1) = (   0.0000000   0.0000000   0.0000000), wk =   0.0092593
        k(    2) = (   0.0000000   0.0000000   0.1666667), wk =   0.0740741
        k(    3) = (   0.0000000   0.0000000   0.3333333), wk =   0.0740741
        k(    4) = (   0.0000000   0.0000000  -0.5000000), wk =   0.0370370
        k(    5) = (   0.0000000   0.1666667   0.1666667), wk =   0.0555556
        k(    6) = (   0.0000000   0.1666667   0.3333333), wk =   0.2222222
        k(    7) = (   0.0000000   0.1666667  -0.5000000), wk =   0.2222222
        k(    8) = (   0.0000000   0.1666667  -0.3333333), wk =   0.2222222
        k(    9) = (   0.0000000   0.1666667  -0.1666667), wk =   0.1111111
        k(   10) = (   0.0000000   0.3333333   0.3333333), wk =   0.0555556
        k(   11) = (   0.0000000   0.3333333  -0.5000000), wk =   0.2222222
        k(   12) = (   0.0000000   0.3333333  -0.3333333), wk =   0.1111111
        k(   13) = (   0.0000000  -0.5000000  -0.5000000), wk =   0.0277778
        k(   14) = (   0.1666667   0.3333333  -0.5000000), wk =   0.2222222
        k(   15) = (   0.1666667   0.3333333  -0.3333333), wk =   0.2222222
        k(   16) = (   0.1666667  -0.5000000  -0.3333333), wk =   0.1111111

     Dense  grid:     7391 G-vectors     FFT dimensions: (  32,  32,  32)

     Dynamical RAM for                 wfc:       0.04 MB

     Dynamical RAM for     wfc (w. buffer):       0.72 MB

     Dynamical RAM for                 EXX:     147.62 MB

     Dynamical RAM for           str. fact:       0.03 MB

     Dynamical RAM for           local pot:       0.00 MB

     Dynamical RAM for          nlocal pot:       0.06 MB

     Dynamical RAM for                qrad:       0.46 MB

     Dynamical RAM for          rho,v,vnew:       0.27 MB

     Dynamical RAM for               rhoin:       0.09 MB

     Dynamical RAM for            rho*nmix:       0.45 MB

     Dynamical RAM for           G-vectors:       0.12 MB

     Dynamical RAM for          h,s,v(r/c):       0.03 MB

     Dynamical RAM for          <psi|beta>:       0.00 MB

     Dynamical RAM for                 psi:       0.08 MB

     Dynamical RAM for                hpsi:       0.08 MB

     Dynamical RAM for      wfcinit/wfcrot:       0.09 MB

     Estimated static dynamical RAM per process >     149.74 MB

     Estimated max dynamical RAM per process >     150.39 MB

     Estimated total dynamical RAM >     601.55 MB
     EXX: ACE will be initialized later

     Initial potential from superposition of free atoms

     starting charge       7.9861, renormalised to       8.0000
     Starting wfcs are random

     total cpu time spent up to now is        0.1 secs

     Self-consistent Calculation

     iteration #  1     ecut=    80.00 Ry     beta= 0.70
     Davidson diagonalization with overlap

---- Real-time Memory Report at c_bands before calling an iterative solver
            65 MiB given to the printing process from OS
             0 MiB allocation reported by mallinfo(arena+hblkhd)
         14095 MiB available memory on the node where the printing process lives
------------------
     ethr =  1.00E-02,  avg # of iterations =  7.2

     total cpu time spent up to now is        0.2 secs

     total energy              =     -22.77861478 Ry
     estimated scf accuracy    <       0.11562241 Ry

     iteration #  2     ecut=    80.00 Ry     beta= 0.70
     Davidson diagonalization with overlap

---- Real-time Memory Report at c_bands before calling an iterative solver
            67 MiB given to the printing process from OS
             0 MiB allocation reported by mallinfo(arena+hblkhd)
         14091 MiB available memory on the node where the printing process lives
------------------
     ethr =  1.45E-03,  avg # of iterations =  1.0

     total cpu time spent up to now is        0.3 secs

     total energy              =     -22.78644936 Ry
     estimated scf accuracy    <       0.00236069 Ry

     iteration #  3     ecut=    80.00 Ry     beta= 0.70
     Davidson diagonalization with overlap

---- Real-time Memory Report at c_bands before calling an iterative solver
            67 MiB given to the printing process from OS
             0 MiB allocation reported by mallinfo(arena+hblkhd)
         14090 MiB available memory on the node where the printing process lives
------------------
     ethr =  2.95E-05,  avg # of iterations =  2.2

     total cpu time spent up to now is        0.3 secs

     total energy              =     -22.78668302 Ry
     estimated scf accuracy    <       0.00005065 Ry

     iteration #  4     ecut=    80.00 Ry     beta= 0.70
     Davidson diagonalization with overlap

---- Real-time Memory Report at c_bands before calling an iterative solver
            67 MiB given to the printing process from OS
             0 MiB allocation reported by mallinfo(arena+hblkhd)
         14090 MiB available memory on the node where the printing process lives
------------------
     ethr =  6.33E-07,  avg # of iterations =  2.9

     total cpu time spent up to now is        0.4 secs

     total energy              =     -22.78668879 Ry
     estimated scf accuracy    <       0.00000007 Ry

     iteration #  5     ecut=    80.00 Ry     beta= 0.70
     Davidson diagonalization with overlap

---- Real-time Memory Report at c_bands before calling an iterative solver
            67 MiB given to the printing process from OS
             0 MiB allocation reported by mallinfo(arena+hblkhd)
         14090 MiB available memory on the node where the printing process lives
------------------
     ethr =  8.65E-10,  avg # of iterations =  2.8

     total cpu time spent up to now is        0.4 secs

     total energy              =     -22.78668891 Ry
     estimated scf accuracy    <       0.00000001 Ry

     iteration #  6     ecut=    80.00 Ry     beta= 0.70
     Davidson diagonalization with overlap

---- Real-time Memory Report at c_bands before calling an iterative solver
            67 MiB given to the printing process from OS
             0 MiB allocation reported by mallinfo(arena+hblkhd)
         14090 MiB available memory on the node where the printing process lives
------------------
     ethr =  1.27E-10,  avg # of iterations =  2.0

     total cpu time spent up to now is        0.4 secs

     End of self-consistent calculation

          k = 0.0000 0.0000 0.0000 (   941 PWs)   bands (ev):

    -8.1207  13.3096  13.3096  13.3096  18.9065  18.9065  18.9065  26.6491
    32.6324  39.9781  39.9781  40.9012

     occupation numbers 
     1.0000   1.0000   1.0000   1.0000   0.0000   0.0000   0.0000   0.0000
     0.0000   0.0000   0.0000   0.0000

          k =-0.1667 0.1667-0.1667 (   917 PWs)   bands (ev):

    -7.3550   9.5670  12.2886  12.2886  20.2444  20.2444  20.7145  27.2747
    33.6072  36.2238  36.2238  39.1976

     occupation numbers 
     1.0000   1.0000   1.0000   1.0000   0.0000   0.0000   0.0000   0.0000
     0.0000   0.0000   0.0000   0.0000

          k =-0.3333 0.3333-0.3333 (   926 PWs)   bands (ev):

    -5.1090   3.9653  10.9930  10.9930  21.5936  21.5936  21.9084  28.5400
    34.2629  36.6156  36.6156  38.5740

     occupation numbers 
     1.0000   1.0000   1.0000   1.0000   0.0000   0.0000   0.0000   0.0000
     0.0000   0.0000   0.0000   0.0000

          k = 0.5000-0.5000 0.5000 (   912 PWs)   bands (ev):

    -2.3505  -0.0343  10.5121  10.5121  21.7831  21.7831  22.1936  28.9932
    35.1771  37.4659  39.2786  39.2786

     occupation numbers 
     1.0000   1.0000   1.0000   1.0000   0.0000   0.0000   0.0000   0.0000
     0.0000   0.0000   0.0000   0.0000

          k = 0.0000 0.3333 0.0000 (   921 PWs)   bands (ev):

    -7.1004  10.7439  10.7439  11.0802  18.2583  22.3273  22.3273  26.0275
    33.2224  34.1747  41.2776  43.2670

     occupation numbers 
     1.0000   1.0000   1.0000   1.0000   0.0000   0.0000   0.0000   0.0000
     0.0000   0.0000   0.0000   0.0000

          k =-0.1667 0.5000-0.1667 (   926 PWs)   bands (ev):

    -5.3460   6.1088   9.4822   9.8945  19.3467  24.0914  24.1570  25.1186
    34.2284  34.9856  40.4312  42.1586

     occupation numbers 
     1.0000   1.0000   1.0000   1.0000   0.0000   0.0000   0.0000   0.0000
     0.0000   0.0000   0.0000   0.0000

          k = 0.6667-0.3333 0.6667 (   928 PWs)   bands (ev):

    -2.3746   1.3259   8.3355   9.3496  20.4394  24.0307  24.5480  27.5895
    33.4456  37.0898  39.9438  41.2934

     occupation numbers 
     1.0000   1.0000   1.0000   1.0000   0.0000   0.0000   0.0000   0.0000
     0.0000   0.0000   0.0000   0.0000

          k = 0.5000-0.1667 0.5000 (   922 PWs)   bands (ev):

    -3.4400   2.8001   7.6518  10.3528  21.3983  22.8753  24.3544  28.2248
    33.3278  35.2149  37.9405  43.2591

     occupation numbers 
     1.0000   1.0000   1.0000   1.0000   0.0000   0.0000   0.0000   0.0000
     0.0000   0.0000   0.0000   0.0000

          k = 0.3333 0.0000 0.3333 (   925 PWs)   bands (ev):

    -6.0941   7.6317   8.5150  11.9347  20.9382  21.9469  22.6689  27.0177
    33.5056  34.4024  36.7239  45.3061

     occupation numbers 
     1.0000   1.0000   1.0000   1.0000   0.0000   0.0000   0.0000   0.0000
     0.0000   0.0000   0.0000   0.0000

          k = 0.0000 0.6667 0.0000 (   922 PWs)   bands (ev):

    -4.1059   6.1552   8.0079   8.0079  17.5012  21.1039  27.3228  27.3228
    34.5968  36.4693  45.1740  47.9621

     occupation numbers 
     1.0000   1.0000   1.0000   1.0000   0.0000   0.0000   0.0000   0.0000
     0.0000   0.0000   0.0000   0.0000

          k = 0.8333-0.1667 0.8333 (   924 PWs)   bands (ev):

    -1.5267   3.1194   5.6755   7.6808  18.6195  21.7013  28.1025  28.4857
    34.4784  36.7159  42.4254  46.8283

     occupation numbers 
     1.0000   1.0000   1.0000   1.0000   0.0000   0.0000   0.0000   0.0000
     0.0000   0.0000   0.0000   0.0000

          k = 0.6667-0.0000 0.6667 (   935 PWs)   bands (ev):

    -0.7074   2.4031   3.9561   8.6314  19.7012  26.2058  26.8339  28.2773
    30.2778  37.1149  38.0691  47.1471

     occupation numbers 
     1.0000   1.0000   1.0000   1.0000   0.0000   0.0000   0.0000   0.0000
     0.0000   0.0000   0.0000   0.0000

          k = 0.0000-1.0000 0.0000 (   934 PWs)   bands (ev):

     0.5794   0.5794   7.0209   7.0209  18.1185  18.1185  30.0597  30.0597
    36.4923  36.4923  45.7351  45.7351

     occupation numbers 
     1.0000   1.0000   1.0000   1.0000   0.0000   0.0000   0.0000   0.0000
     0.0000   0.0000   0.0000   0.0000

          k = 0.6667-0.3333 1.0000 (   918 PWs)   bands (ev):

    -3.1712   4.6435   6.0161   8.5162  21.0289  23.3324  24.7455  27.4440
    33.9778  35.3341  40.4525  46.5620

     occupation numbers 
     1.0000   1.0000   1.0000   1.0000   0.0000   0.0000   0.0000   0.0000
     0.0000   0.0000   0.0000   0.0000

          k = 0.5000-0.1667 0.8333 (   930 PWs)   bands (ev):

    -0.5765   1.6236   5.5084   7.3967  22.1279  23.3639  27.0404  27.2899
    31.4836  36.6532  40.6537  44.4540

     occupation numbers 
     1.0000   1.0000   1.0000   1.0000   0.0000   0.0000   0.0000   0.0000
     0.0000   0.0000   0.0000   0.0000

          k =-0.3333-1.0000 0.0000 (   920 PWs)   bands (ev):

     1.1230   1.1230   5.5172   5.5172  21.5625  21.5625  27.7963  27.7963
    34.9700  34.9700  44.0260  44.0260

     occupation numbers 
     1.0000   1.0000   1.0000   1.0000   0.0000   0.0000   0.0000   0.0000
     0.0000   0.0000   0.0000   0.0000

     highest occupied, lowest unoccupied level (ev):    13.3096   17.5012

!    total energy              =     -22.78668891 Ry
     estimated scf accuracy    <          1.5E-10 Ry

     convergence has been achieved in   6 iterations

     Using ACE for calculation of exact exchange

     EXX grid:     7391 G-vectors     FFT dimensions: (  32,  32,  32)
     ACE projected onto    12 (nbndproj) and applied to    12 (nbnd) bands

     EXX: now go back to refine exchange calculation

     total cpu time spent up to now is       58.7 secs

     Self-consistent Calculation

     iteration #  1     ecut=    80.00 Ry     beta= 0.70
     Davidson diagonalization with overlap

---- Real-time Memory Report at c_bands before calling an iterative solver
           450 MiB given to the printing process from OS
             0 MiB allocation reported by mallinfo(arena+hblkhd)
         12567 MiB available memory on the node where the printing process lives
------------------
     ethr =  1.27E-10,  avg # of iterations =  6.2

     total cpu time spent up to now is       58.8 secs

     total energy              =     -22.78399870 Ry
     estimated scf accuracy    <       0.00014778 Ry

     iteration #  2     ecut=    80.00 Ry     beta= 0.70
     Davidson diagonalization with overlap

---- Real-time Memory Report at c_bands before calling an iterative solver
           450 MiB given to the printing process from OS
             0 MiB allocation reported by mallinfo(arena+hblkhd)
         12565 MiB available memory on the node where the printing process lives
------------------
     ethr =  1.85E-06,  avg # of iterations =  1.0

     total cpu time spent up to now is       58.9 secs

     total energy              =     -22.78400562 Ry
     estimated scf accuracy    <       0.00000560 Ry

     iteration #  3     ecut=    80.00 Ry     beta= 0.70
     Davidson diagonalization with overlap

---- Real-time Memory Report at c_bands before calling an iterative solver
           450 MiB given to the printing process from OS
             0 MiB allocation reported by mallinfo(arena+hblkhd)
         12565 MiB available memory on the node where the printing process lives
------------------
     ethr =  7.00E-08,  avg # of iterations =  1.8

     total cpu time spent up to now is       58.9 secs

     total energy              =     -22.78400610 Ry
     estimated scf accuracy    <       0.00000007 Ry

     iteration #  4     ecut=    80.00 Ry     beta= 0.70
     Davidson diagonalization with overlap

---- Real-time Memory Report at c_bands before calling an iterative solver
           450 MiB given to the printing process from OS
             0 MiB allocation reported by mallinfo(arena+hblkhd)
         12565 MiB available memory on the node where the printing process lives
------------------
     ethr =  9.14E-10,  avg # of iterations =  1.9

     total cpu time spent up to now is       59.0 secs

     End of self-consistent calculation

          k = 0.0000 0.0000 0.0000 (   941 PWs)   bands (ev):

   -10.4977  12.6058  12.6059  12.6059  19.7507  19.7507  19.7507  27.9152
    33.6248  41.1416  41.1416  42.0669

     occupation numbers 
     1.0000   1.0000   1.0000   1.0000   0.0000   0.0000   0.0000   0.0000
     0.0000   0.0000   0.0000   0.0000

          k =-0.1667 0.1667-0.1667 (   917 PWs)   bands (ev):

    -9.6809   8.5656  11.5164  11.5164  21.1838  21.1838  21.6150  28.5982
    34.7134  37.2808  37.2808  40.3485

     occupation numbers 
     1.0000   1.0000   1.0000   1.0000   0.0000   0.0000   0.0000   0.0000
     0.0000   0.0000   0.0000   0.0000

          k =-0.3333 0.3333-0.3333 (   926 PWs)   bands (ev):

    -7.2917   2.4980  10.1051  10.1051  22.6121  22.6121  22.8386  29.9057
    35.4742  37.7719  37.7719  39.9738

     occupation numbers 
     1.0000   1.0000   1.0000   1.0000   0.0000   0.0000   0.0000   0.0000
     0.0000   0.0000   0.0000   0.0000

          k = 0.5000-0.5000 0.5000 (   912 PWs)   bands (ev):

    -4.3887  -1.7590   9.5825   9.5825  22.7894  22.7894  23.1193  30.2925
    36.5412  38.9218  40.6543  40.6543

     occupation numbers 
     1.0000   1.0000   1.0000   1.0000   0.0000   0.0000   0.0000   0.0000
     0.0000   0.0000   0.0000   0.0000

          k = 0.0000 0.3333 0.0000 (   921 PWs)   bands (ev):

    -9.4092   9.8652   9.8652  10.1477  19.0212  23.4075  23.4075  27.1744
    34.3615  35.3375  42.4872  44.4800

     occupation numbers 
     1.0000   1.0000   1.0000   1.0000   0.0000   0.0000   0.0000   0.0000
     0.0000   0.0000   0.0000   0.0000

          k =-0.1667 0.5000-0.1667 (   926 PWs)   bands (ev):

    -7.5409   4.8049   8.4925   8.8990  20.1697  25.2593  25.3661  26.1542
    35.6287  36.2866  41.6711  43.3643

     occupation numbers 
     1.0000   1.0000   1.0000   1.0000   0.0000   0.0000   0.0000   0.0000
     0.0000   0.0000   0.0000   0.0000

          k = 0.6667-0.3333 0.6667 (   928 PWs)   bands (ev):

    -4.3875  -0.3290   7.2181   8.3388  21.2908  25.2097  25.6842  28.8863
    34.7575  38.6768  41.2923  42.4819

     occupation numbers 
     1.0000   1.0000   1.0000   1.0000   0.0000   0.0000   0.0000   0.0000
     0.0000   0.0000   0.0000   0.0000

          k = 0.5000-0.1667 0.5000 (   922 PWs)   bands (ev):

    -5.5132   1.2423   6.4924   9.4101  22.3100  24.0180  25.4560  29.6253
    34.6018  36.3031  39.4980  44.5104

     occupation numbers 
     1.0000   1.0000   1.0000   1.0000   0.0000   0.0000   0.0000   0.0000
     0.0000   0.0000   0.0000   0.0000

          k = 0.3333 0.0000 0.3333 (   925 PWs)   bands (ev):

    -8.3376   6.4335   7.4629  11.1142  21.9661  22.9610  23.6797  28.2844
    34.4773  35.6552  38.0394  46.5400

     occupation numbers 
     1.0000   1.0000   1.0000   1.0000   0.0000   0.0000   0.0000   0.0000
     0.0000   0.0000   0.0000   0.0000

          k = 0.0000 0.6667 0.0000 (   922 PWs)   bands (ev):

    -6.2191   4.7891   6.9048   6.9048  18.1776  21.8910  28.7803  28.7804
    36.0937  37.9304  46.4853  49.3573

     occupation numbers 
     1.0000   1.0000   1.0000   1.0000   0.0000   0.0000   0.0000   0.0000
     0.0000   0.0000   0.0000   0.0000

          k = 0.8333-0.1667 0.8333 (   924 PWs)   bands (ev):

    -3.4672   1.5191   4.4033   6.5502  19.3343  22.5851  29.6156  29.9857
    35.9551  38.3117  43.7250  48.1635

     occupation numbers 
     1.0000   1.0000   1.0000   1.0000   0.0000   0.0000   0.0000   0.0000
     0.0000   0.0000   0.0000   0.0000

          k = 0.6667-0.0000 0.6667 (   935 PWs)   bands (ev):

    -2.6088   0.7619   2.5602   7.5634  20.4688  27.6063  28.1828  29.7451
    31.3667  38.2169  39.7353  48.4335

     occupation numbers 
     1.0000   1.0000   1.0000   1.0000   0.0000   0.0000   0.0000   0.0000
     0.0000   0.0000   0.0000   0.0000

          k = 0.0000-1.0000 0.0000 (   934 PWs)   bands (ev):

    -1.2084  -1.2084   5.8442   5.8442  18.7897  18.7897  31.7427  31.7427
    38.0789  38.0789  47.0480  47.0480

     occupation numbers 
     1.0000   1.0000   1.0000   1.0000   0.0000   0.0000   0.0000   0.0000
     0.0000   0.0000   0.0000   0.0000

          k = 0.6667-0.3333 1.0000 (   918 PWs)   bands (ev):

    -5.2221   3.1765   4.7647   7.4416  21.9644  24.2763  25.9351  28.8916
    35.3178  36.8182  41.8132  47.8654

     occupation numbers 
     1.0000   1.0000   1.0000   1.0000   0.0000   0.0000   0.0000   0.0000
     0.0000   0.0000   0.0000   0.0000

          k = 0.5000-0.1667 0.8333 (   930 PWs)   bands (ev):

    -2.4783  -0.0226   4.1785   6.2513  23.0452  24.4349  28.4390  28.6859
    32.6498  38.2869  42.0104  45.7076

     occupation numbers 
     1.0000   1.0000   1.0000   1.0000   0.0000   0.0000   0.0000   0.0000
     0.0000   0.0000   0.0000   0.0000

          k =-0.3333-1.0000 0.0000 (   920 PWs)   bands (ev):

    -0.6394  -0.6394   4.2412   4.2412  22.4533  22.4533  29.2382  29.2382
    36.4965  36.4965  45.4005  45.4005

     occupation numbers 
     1.0000   1.0000   1.0000   1.0000   0.0000   0.0000   0.0000   0.0000
     0.0000   0.0000   0.0000   0.0000

     highest occupied, lowest unoccupied level (ev):    12.6059   18.1776

!    total energy              =     -22.78400611 Ry
     estimated scf accuracy    <          5.7E-10 Ry

     convergence has been achieved in   4 iterations

     Using ACE for calculation of exact exchange
     ACE projected onto    12 (nbndproj) and applied to    12 (nbnd) bands

     total energy              =     -22.78407912 Ry
     Harris-Foulkes estimate   =     -22.78407912 Ry
     est. exchange err (dexx)  =       0.00007302 Ry
     - averaged Fock potential =       2.52335219 Ry
     + Fock energy (ACE)       =      -1.26226586 Ry

     EXX: now go back to refine exchange calculation

     total cpu time spent up to now is      117.5 secs

     Self-consistent Calculation

     iteration #  1     ecut=    80.00 Ry     beta= 0.70
     Davidson diagonalization with overlap

---- Real-time Memory Report at c_bands before calling an iterative solver
           450 MiB given to the printing process from OS
             0 MiB allocation reported by mallinfo(arena+hblkhd)
         12563 MiB available memory on the node where the printing process lives
------------------
     ethr =  9.14E-10,  avg # of iterations =  4.0

     total cpu time spent up to now is      117.6 secs

     total energy              =     -22.78408433 Ry
     estimated scf accuracy    <       0.00000046 Ry

     iteration #  2     ecut=    80.00 Ry     beta= 0.70
     Davidson diagonalization with overlap

---- Real-time Memory Report at c_bands before calling an iterative solver
           450 MiB given to the printing process from OS
             0 MiB allocation reported by mallinfo(arena+hblkhd)
         12563 MiB available memory on the node where the printing process lives
------------------
     ethr =  5.78E-09,  avg # of iterations =  1.0

     total cpu time spent up to now is      117.6 secs

     total energy              =     -22.78408433 Ry
     estimated scf accuracy    <       0.00000003 Ry

     iteration #  3     ecut=    80.00 Ry     beta= 0.70
     Davidson diagonalization with overlap

---- Real-time Memory Report at c_bands before calling an iterative solver
           450 MiB given to the printing process from OS
             0 MiB allocation reported by mallinfo(arena+hblkhd)
         12562 MiB available memory on the node where the printing process lives
------------------
     ethr =  3.71E-10,  avg # of iterations =  1.0

     total cpu time spent up to now is      117.7 secs

     End of self-consistent calculation

          k = 0.0000 0.0000 0.0000 (   941 PWs)   bands (ev):

   -10.4986  12.5933  12.5933  12.5933  19.7651  19.7651  19.7651  27.9218
    33.6277  41.1374  41.1374  42.0684

     occupation numbers 
     1.0000   1.0000   1.0000   1.0000   0.0000   0.0000   0.0000   0.0000
     0.0000   0.0000   0.0000   0.0000

          k =-0.1667 0.1667-0.1667 (   917 PWs)   bands (ev):

    -9.6820   8.5623  11.5080  11.5080  21.1938  21.1938  21.6220  28.6043
    34.7168  37.2785  37.2786  40.3506

     occupation numbers 
     1.0000   1.0000   1.0000   1.0000   0.0000   0.0000   0.0000   0.0000
     0.0000   0.0000   0.0000   0.0000

          k =-0.3333 0.3333-0.3333 (   926 PWs)   bands (ev):

    -7.2929   2.4975  10.0995  10.0995  22.6197  22.6197  22.8434  29.9116
    35.4774  37.7699  37.7699  39.9771

     occupation numbers 
     1.0000   1.0000   1.0000   1.0000   0.0000   0.0000   0.0000   0.0000
     0.0000   0.0000   0.0000   0.0000

          k = 0.5000-0.5000 0.5000 (   912 PWs)   bands (ev):

    -4.3916  -1.7578   9.5771   9.5771  22.7966  22.7966  23.1242  30.2987
    36.5450  38.9250  40.6537  40.6537

     occupation numbers 
     1.0000   1.0000   1.0000   1.0000   0.0000   0.0000   0.0000   0.0000
     0.0000   0.0000   0.0000   0.0000

          k = 0.0000 0.3333 0.0000 (   921 PWs)   bands (ev):

    -9.4103   9.8606   9.8606  10.1397  19.0333  23.4136  23.4136  27.1799
    34.3613  35.3412  42.4829  44.4811

     occupation numbers 
     1.0000   1.0000   1.0000   1.0000   0.0000   0.0000   0.0000   0.0000
     0.0000   0.0000   0.0000   0.0000

          k =-0.1667 0.5000-0.1667 (   926 PWs)   bands (ev):

    -7.5421   4.8030   8.4891   8.8949  20.1778  25.2643  25.3710  26.1580
    35.6303  36.2904  41.6691  43.3652

     occupation numbers 
     1.0000   1.0000   1.0000   1.0000   0.0000   0.0000   0.0000   0.0000
     0.0000   0.0000   0.0000   0.0000

          k = 0.6667-0.3333 0.6667 (   928 PWs)   bands (ev):

    -4.3897  -0.3290   7.2155   8.3351  21.2973  25.2150  25.6883  28.8910
    34.7603  38.6802  41.2913  42.4817

     occupation numbers 
     1.0000   1.0000   1.0000   1.0000   0.0000   0.0000   0.0000   0.0000
     0.0000   0.0000   0.0000   0.0000

          k = 0.5000-0.1667 0.5000 (   922 PWs)   bands (ev):

    -5.5149   1.2416   6.4908   9.4052  22.3164  24.0248  25.4592  29.6311
    34.6047  36.3004  39.5014  44.5098

     occupation numbers 
     1.0000   1.0000   1.0000   1.0000   0.0000   0.0000   0.0000   0.0000
     0.0000   0.0000   0.0000   0.0000

          k = 0.3333 0.0000 0.3333 (   925 PWs)   bands (ev):

    -8.3387   6.4301   7.4623  11.1065  21.9758  22.9683  23.6822  28.2902
    34.4743  35.6589  38.0409  46.5381

     occupation numbers 
     1.0000   1.0000   1.0000   1.0000   0.0000   0.0000   0.0000   0.0000
     0.0000   0.0000   0.0000   0.0000

          k = 0.0000 0.6667 0.0000 (   922 PWs)   bands (ev):

    -6.2203   4.7851   6.9020   6.9020  18.1856  21.8956  28.7853  28.7853
    36.0966  37.9347  46.4815  49.3577

     occupation numbers 
     1.0000   1.0000   1.0000   1.0000   0.0000   0.0000   0.0000   0.0000
     0.0000   0.0000   0.0000   0.0000

          k = 0.8333-0.1667 0.8333 (   924 PWs)   bands (ev):

    -3.4690   1.5159   4.4038   6.5473  19.3403  22.5887  29.6210  29.9913
    35.9584  38.3157  43.7229  48.1634

     occupation numbers 
     1.0000   1.0000   1.0000   1.0000   0.0000   0.0000   0.0000   0.0000
     0.0000   0.0000   0.0000   0.0000

          k = 0.6667-0.0000 0.6667 (   935 PWs)   bands (ev):

    -2.6116   0.7595   2.5623   7.5601  20.4746  27.6122  28.1877  29.7513
    31.3660  38.2136  39.7394  48.4337

     occupation numbers 
     1.0000   1.0000   1.0000   1.0000   0.0000   0.0000   0.0000   0.0000
     0.0000   0.0000   0.0000   0.0000

          k = 0.0000-1.0000 0.0000 (   934 PWs)   bands (ev):

    -1.2104  -1.2104   5.8413   5.8413  18.7955  18.7955  31.7491  31.7491
    38.0833  38.0833  47.0457  47.0457

     occupation numbers 
     1.0000   1.0000   1.0000   1.0000   0.0000   0.0000   0.0000   0.0000
     0.0000   0.0000   0.0000   0.0000

          k = 0.6667-0.3333 1.0000 (   918 PWs)   bands (ev):

    -5.2237   3.1730   4.7649   7.4398  21.9696  24.2792  25.9407  28.8965
    35.3207  36.8201  41.8136  47.8649

     occupation numbers 
     1.0000   1.0000   1.0000   1.0000   0.0000   0.0000   0.0000   0.0000
     0.0000   0.0000   0.0000   0.0000

          k = 0.5000-0.1667 0.8333 (   930 PWs)   bands (ev):

    -2.4815  -0.0232   4.1776   6.2508  23.0488  24.4395  28.4447  28.6913
    32.6498  38.2903  42.0100  45.7070

     occupation numbers 
     1.0000   1.0000   1.0000   1.0000   0.0000   0.0000   0.0000   0.0000
     0.0000   0.0000   0.0000   0.0000

          k =-0.3333-1.0000 0.0000 (   920 PWs)   bands (ev):

    -0.6424  -0.6424   4.2418   4.2418  22.4568  22.4568  29.2437  29.2437
    36.4994  36.4994  45.3997  45.3997

     occupation numbers 
     1.0000   1.0000   1.0000   1.0000   0.0000   0.0000   0.0000   0.0000
     0.0000   0.0000   0.0000   0.0000

     highest occupied, lowest unoccupied level (ev):    12.5933   18.1856

!    total energy              =     -22.78408433 Ry
     estimated scf accuracy    <          6.9E-11 Ry

     convergence has been achieved in   3 iterations

     Using ACE for calculation of exact exchange
     ACE projected onto    12 (nbndproj) and applied to    12 (nbnd) bands

     total energy              =     -22.78408473 Ry
     Harris-Foulkes estimate   =     -22.78408473 Ry
     est. exchange err (dexx)  =       0.00000040 Ry
     - averaged Fock potential =       2.52466723 Ry
     + Fock energy (ACE)       =      -1.26240177 Ry

     EXX: now go back to refine exchange calculation

     total cpu time spent up to now is      177.6 secs

     Self-consistent Calculation

     iteration #  1     ecut=    80.00 Ry     beta= 0.70
     Davidson diagonalization with overlap

---- Real-time Memory Report at c_bands before calling an iterative solver
           450 MiB given to the printing process from OS
             0 MiB allocation reported by mallinfo(arena+hblkhd)
         12561 MiB available memory on the node where the printing process lives
------------------
     ethr =  3.71E-10,  avg # of iterations =  2.1

     Threshold (ethr) on eigenvalues was too large:
     Diagonalizing with lowered threshold

     Davidson diagonalization with overlap

---- Real-time Memory Report at c_bands before calling an iterative solver
           450 MiB given to the printing process from OS
             0 MiB allocation reported by mallinfo(arena+hblkhd)
         12561 MiB available memory on the node where the printing process lives
------------------
     ethr =  3.47E-11,  avg # of iterations =  1.0

     total cpu time spent up to now is      177.7 secs

     End of self-consistent calculation

          k = 0.0000 0.0000 0.0000 (   941 PWs)   bands (ev):

   -10.4986  12.5920  12.5920  12.5920  19.7664  19.7664  19.7664  27.9222
    33.6279  41.1372  41.1372  42.0686

     occupation numbers 
     1.0000   1.0000   1.0000   1.0000   0.0000   0.0000   0.0000   0.0000
     0.0000   0.0000   0.0000   0.0000

          k =-0.1667 0.1667-0.1667 (   917 PWs)   bands (ev):

    -9.6820   8.5620  11.5072  11.5072  21.1947  21.1947  21.6225  28.6048
    34.7171  37.2785  37.2785  40.3508

     occupation numbers 
     1.0000   1.0000   1.0000   1.0000   0.0000   0.0000   0.0000   0.0000
     0.0000   0.0000   0.0000   0.0000

          k =-0.3333 0.3333-0.3333 (   926 PWs)   bands (ev):

    -7.2930   2.4974  10.0989  10.0989  22.6204  22.6204  22.8438  29.9121
    35.4777  37.7698  37.7698  39.9774

     occupation numbers 
     1.0000   1.0000   1.0000   1.0000   0.0000   0.0000   0.0000   0.0000
     0.0000   0.0000   0.0000   0.0000

          k = 0.5000-0.5000 0.5000 (   912 PWs)   bands (ev):

    -4.3918  -1.7576   9.5766   9.5766  22.7972  22.7972  23.1246  30.2992
    36.5453  38.9252  40.6537  40.6537

     occupation numbers 
     1.0000   1.0000   1.0000   1.0000   0.0000   0.0000   0.0000   0.0000
     0.0000   0.0000   0.0000   0.0000

          k = 0.0000 0.3333 0.0000 (   921 PWs)   bands (ev):

    -9.4103   9.8602   9.8602  10.1388  19.0343  23.4141  23.4141  27.1804
    34.3614  35.3414  42.4827  44.4813

     occupation numbers 
     1.0000   1.0000   1.0000   1.0000   0.0000   0.0000   0.0000   0.0000
     0.0000   0.0000   0.0000   0.0000

          k =-0.1667 0.5000-0.1667 (   926 PWs)   bands (ev):

    -7.5422   4.8028   8.4888   8.8944  20.1785  25.2647  25.3714  26.1583
    35.6304  36.2907  41.6690  43.3654

     occupation numbers 
     1.0000   1.0000   1.0000   1.0000   0.0000   0.0000   0.0000   0.0000
     0.0000   0.0000   0.0000   0.0000

          k = 0.6667-0.3333 0.6667 (   928 PWs)   bands (ev):

    -4.3899  -0.3289   7.2152   8.3347  21.2979  25.2155  25.6887  28.8914
    34.7605  38.6805  41.2913  42.4818

     occupation numbers 
     1.0000   1.0000   1.0000   1.0000   0.0000   0.0000   0.0000   0.0000
     0.0000   0.0000   0.0000   0.0000

          k = 0.5000-0.1667 0.5000 (   922 PWs)   bands (ev):

    -5.5150   1.2416   6.4906   9.4047  22.3169  24.0254  25.4594  29.6315
    34.6049  36.3002  39.5017  44.5098

     occupation numbers 
     1.0000   1.0000   1.0000   1.0000   0.0000   0.0000   0.0000   0.0000
     0.0000   0.0000   0.0000   0.0000

          k = 0.3333 0.0000 0.3333 (   925 PWs)   bands (ev):

    -8.3388   6.4298   7.4623  11.1057  21.9767  22.9689  23.6823  28.2907
    34.4742  35.6592  38.0410  46.5381

     occupation numbers 
     1.0000   1.0000   1.0000   1.0000   0.0000   0.0000   0.0000   0.0000
     0.0000   0.0000   0.0000   0.0000

          k = 0.0000 0.6667 0.0000 (   922 PWs)   bands (ev):

    -6.2204   4.7847   6.9018   6.9018  18.1862  21.8960  28.7856  28.7856
    36.0968  37.9350  46.4813  49.3578

     occupation numbers 
     1.0000   1.0000   1.0000   1.0000   0.0000   0.0000   0.0000   0.0000
     0.0000   0.0000   0.0000   0.0000

          k = 0.8333-0.1667 0.8333 (   924 PWs)   bands (ev):

    -3.4692   1.5156   4.4038   6.5470  19.3408  22.5890  29.6215  29.9917
    35.9586  38.3160  43.7228  48.1634

     occupation numbers 
     1.0000   1.0000   1.0000   1.0000   0.0000   0.0000   0.0000   0.0000
     0.0000   0.0000   0.0000   0.0000

          k = 0.6667-0.0000 0.6667 (   935 PWs)   bands (ev):

    -2.6118   0.7593   2.5625   7.5599  20.4751  27.6128  28.1881  29.7518
    31.3658  38.2134  39.7397  48.4337

     occupation numbers 
     1.0000   1.0000   1.0000   1.0000   0.0000   0.0000   0.0000   0.0000
     0.0000   0.0000   0.0000   0.0000

          k = 0.0000-1.0000 0.0000 (   934 PWs)   bands (ev):

    -1.2106  -1.2106   5.8411   5.8411  18.7960  18.7960  31.7496  31.7496
    38.0836  38.0836  47.0455  47.0455

     occupation numbers 
     1.0000   1.0000   1.0000   1.0000   0.0000   0.0000   0.0000   0.0000
     0.0000   0.0000   0.0000   0.0000

          k = 0.6667-0.3333 1.0000 (   918 PWs)   bands (ev):

    -5.2238   3.1727   4.7650   7.4396  21.9701  24.2794  25.9412  28.8969
    35.3209  36.8203  41.8136  47.8649

     occupation numbers 
     1.0000   1.0000   1.0000   1.0000   0.0000   0.0000   0.0000   0.0000
     0.0000   0.0000   0.0000   0.0000

          k = 0.5000-0.1667 0.8333 (   930 PWs)   bands (ev):

    -2.4818  -0.0232   4.1775   6.2507  23.0491  24.4399  28.4452  28.6918
    32.6497  38.2905  42.0100  45.7070

     occupation numbers 
     1.0000   1.0000   1.0000   1.0000   0.0000   0.0000   0.0000   0.0000
     0.0000   0.0000   0.0000   0.0000

          k =-0.3333-1.0000 0.0000 (   920 PWs)   bands (ev):

    -0.6426  -0.6426   4.2418   4.2418  22.4571  22.4571  29.2441  29.2441
    36.4996  36.4996  45.3996  45.3996

     occupation numbers 
     1.0000   1.0000   1.0000   1.0000   0.0000   0.0000   0.0000   0.0000
     0.0000   0.0000   0.0000   0.0000

     highest occupied, lowest unoccupied level (ev):    12.5920   18.1862

!    total energy              =     -22.78408476 Ry
     estimated scf accuracy    <          2.8E-09 Ry

     convergence has been achieved in   1 iterations

     Using ACE for calculation of exact exchange
     ACE projected onto    12 (nbndproj) and applied to    12 (nbnd) bands

!!   total energy              =     -22.78408477 Ry
     Harris-Foulkes estimate   =     -22.78408477 Ry
     est. exchange err (dexx)  =          2.9E-09 Ry
     - averaged Fock potential =       2.52482002 Ry
     + Fock energy (ACE)       =      -1.26241826 Ry

     EXX self-consistency reached

     Writing all to output data dir ./out_qc/cqc.save/ :
     XML data file, charge density, pseudopotentials, collected wavefunctions

     init_run     :      0.13s CPU      0.13s WALL (       1 calls)
     electrons    :      0.70s CPU      0.79s WALL (       4 calls)

     Called by init_run:
     aceinit0     :      0.00s CPU      0.00s WALL (       1 calls)
     wfcinit      :      0.02s CPU      0.02s WALL (       1 calls)
     wfcinit:wfcr :      0.02s CPU      0.02s WALL (      16 calls)
     potinit      :      0.00s CPU      0.00s WALL (       1 calls)
     hinit0       :      0.09s CPU      0.10s WALL (       1 calls)

     Called by electrons:
     c_bands      :      0.56s CPU      0.63s WALL (      15 calls)
     sum_band     :      0.09s CPU      0.10s WALL (      15 calls)
     v_of_rho     :      0.05s CPU      0.05s WALL (      16 calls)
     v_h          :      0.00s CPU      0.00s WALL (      16 calls)
     v_xc         :      0.05s CPU      0.05s WALL (      16 calls)
     mix_rho      :      0.00s CPU      0.00s WALL (      15 calls)

     Called by c_bands:
     init_us_2    :      0.01s CPU      0.01s WALL (     496 calls)
     cegterg      :      0.54s CPU      0.61s WALL (     240 calls)

     Called by sum_band:
     sum_band:wei :      0.00s CPU      0.00s WALL (      15 calls)
     sum_band:loo :      0.09s CPU      0.10s WALL (      15 calls)
     sum_band:buf :      0.00s CPU      0.00s WALL (     240 calls)
     sum_band:ini :      0.00s CPU      0.01s WALL (     240 calls)

     Called by *egterg:
     cdiaghg      :      0.06s CPU      0.07s WALL (     784 calls)
     cegterg:over :      0.02s CPU      0.02s WALL (     608 calls)
     cegterg:upda :      0.01s CPU      0.01s WALL (     608 calls)
     cegterg:last :      0.01s CPU      0.01s WALL (     485 calls)
     h_psi        :      0.45s CPU      0.50s WALL (     864 calls)
     g_psi        :      0.00s CPU      0.00s WALL (     608 calls)

     Called by h_psi:
     h_psi:calbec :      0.01s CPU      0.02s WALL (     864 calls)
     vloc_psi     :      0.42s CPU      0.47s WALL (     864 calls)
                                        0.00s GPU  (     864 calls)
     add_vuspsi   :      0.01s CPU      0.01s WALL (     864 calls)

     General routines
     calbec       :      0.03s CPU      0.03s WALL (    1615 calls)
     fft          :      0.10s CPU      0.10s WALL (     155 calls)
     ffts         :      0.00s CPU      0.00s WALL (      15 calls)
     fftw         :      0.44s CPU      0.49s WALL (   18520 calls)
     fftc         :    144.51s CPU    165.49s WALL ( 3981312 calls)
     fftcw        :      0.07s CPU      0.09s WALL (    2304 calls)

     Parallel routines

     EXX routines
     exx_grid     :      0.00s CPU      0.00s WALL (       1 calls)
     exxinit      :      1.11s CPU      1.47s WALL (       4 calls)
     vexx         :    205.31s CPU    235.02s WALL (      64 calls)
     matcalc      :      0.01s CPU      0.01s WALL (     751 calls)
     aceupdate    :      0.00s CPU      0.00s WALL (      64 calls)
     vexxace      :      0.01s CPU      0.01s WALL (     575 calls)
     aceinit      :    205.31s CPU    235.03s WALL (      64 calls)

     PWSCF        :   3m27.27s CPU   3m57.47s WALL


   This run was terminated on:   7:10:11  26Jun2026            

=------------------------------------------------------------------------------=
   JOB DONE.
=------------------------------------------------------------------------------=
