
     Program PHONON v.7.5 starts on 15Jun2026 at 16:41:33 

     This program is part of the open-source Quantum ESPRESSO suite
     for quantum simulation of materials; please cite
         "P. Giannozzi et al., J. Phys.:Condens. Matter 21 395502 (2009);
         "P. Giannozzi et al., J. Phys.:Condens. Matter 29 465901 (2017);
         "P. Giannozzi et al., J. Chem. Phys. 152 154105 (2020);
          URL http://www.quantum-espresso.org", 
     in publications or presentations arising from this work. More details at
     http://www.quantum-espresso.org/quote

     Parallel version (MPI & OpenMP), running on       4 processor cores
     Number of MPI processes:                 1
     Threads/MPI process:                     4

     MPI processes distributed on     1 nodes
     14507 MiB available memory on the printing compute node when the environment starts

     Reading input from mgo.ph.in

     Reading xml data from directory:

     ./out/mgo.save/

     Subspace diagonalization in iterative solution of the eigenvalue problem:
     a serial algorithm will be used


     IMPORTANT: XC functional enforced from input :
     Exchange-correlation= PBE
                           (   1   4   3   4   0   0   0)
     Any further DFT definition will be discarded
     Please, verify this is what you really want


     G-vector sticks info
     --------------------
     sticks:   dense  smooth     PW     G-vecs:    dense   smooth      PW
     Sum         685     685    211                12039    12039    2085

     Using Slab Decomposition

     Reading collected, re-writing distributed wavefunctions in ./out/

     Number and degeneracy of irreps per q-point
       N         xq(1)         xq(2)         xq(3)   N irreps
       1   0.000000000   0.000000000   0.000000000       2
        3   3

     Calculation of q =    0.0000000   0.0000000   0.0000000

     MgO electronic (clamped-ion) dielectric tensor via DFPT                    

     bravais-lattice index     =            2
     lattice parameter (alat)  =       7.9104  a.u.
     unit-cell volume          =     123.7472 (a.u.)^3
     number of atoms/cell      =            2
     number of atomic types    =            2
     kinetic-energy cut-off    =      80.0000  Ry
     charge density cut-off    =     320.0000  Ry
     convergence threshold     =      1.0E-14
     beta                      =       0.7000
     number of iterations used =            4
     Exchange-correlation= PBE
                           (   1   4   3   4   0   0   0)


     celldm(1)=    7.91040  celldm(2)=    0.00000  celldm(3)=    0.00000
     celldm(4)=    0.00000  celldm(5)=    0.00000  celldm(6)=    0.00000

     crystal axes: (cart. coord. in units of alat)
               a(1) = ( -0.5000  0.0000  0.5000 )  
               a(2) = (  0.0000  0.5000  0.5000 )  
               a(3) = ( -0.5000  0.5000  0.0000 )  

     reciprocal axes: (cart. coord. in units 2 pi/alat)
               b(1) = ( -1.0000 -1.0000  1.0000 )  
               b(2) = (  1.0000  1.0000  1.0000 )  
               b(3) = ( -1.0000  1.0000 -1.0000 )  


     Atoms inside the unit cell: 

     Cartesian axes

     site n.  atom      mass           positions (alat units)
        1  Mg     24.3050   tau(    1) = (    0.00000    0.00000    0.00000  )
        2  O      15.9990   tau(    2) = (   -0.50000    0.50000    0.50000  )

     Computing dynamical matrix for 
                    q = (   0.0000000   0.0000000   0.0000000 )

     49 Sym.Ops. (with q -> -q+G )


     G cutoff =  507.2092  (  12039 G-vectors)     FFT grid: ( 32, 32, 32)
     number of k points=    29
                       cart. coord. in units 2pi/alat
        k(    1) = (   0.0000000   0.0000000   0.0000000), wk =   0.0039062
        k(    2) = (  -0.1250000   0.1250000  -0.1250000), wk =   0.0312500
        k(    3) = (  -0.2500000   0.2500000  -0.2500000), wk =   0.0312500
        k(    4) = (  -0.3750000   0.3750000  -0.3750000), wk =   0.0312500
        k(    5) = (   0.5000000  -0.5000000   0.5000000), wk =   0.0156250
        k(    6) = (   0.0000000   0.2500000   0.0000000), wk =   0.0234375
        k(    7) = (  -0.1250000   0.3750000  -0.1250000), wk =   0.0937500
        k(    8) = (  -0.2500000   0.5000000  -0.2500000), wk =   0.0937500
        k(    9) = (   0.6250000  -0.3750000   0.6250000), wk =   0.0937500
        k(   10) = (   0.5000000  -0.2500000   0.5000000), wk =   0.0937500
        k(   11) = (   0.3750000  -0.1250000   0.3750000), wk =   0.0937500
        k(   12) = (   0.2500000   0.0000000   0.2500000), wk =   0.0468750
        k(   13) = (   0.0000000   0.5000000   0.0000000), wk =   0.0234375
        k(   14) = (  -0.1250000   0.6250000  -0.1250000), wk =   0.0937500
        k(   15) = (   0.7500000  -0.2500000   0.7500000), wk =   0.0937500
        k(   16) = (   0.6250000  -0.1250000   0.6250000), wk =   0.0937500
        k(   17) = (   0.5000000   0.0000000   0.5000000), wk =   0.0468750
        k(   18) = (   0.0000000   0.7500000   0.0000000), wk =   0.0234375
        k(   19) = (   0.8750000  -0.1250000   0.8750000), wk =   0.0937500
        k(   20) = (   0.7500000   0.0000000   0.7500000), wk =   0.0468750
        k(   21) = (   0.0000000  -1.0000000   0.0000000), wk =   0.0117188
        k(   22) = (  -0.2500000   0.5000000   0.0000000), wk =   0.0937500
        k(   23) = (   0.6250000  -0.3750000   0.8750000), wk =   0.1875000
        k(   24) = (   0.5000000  -0.2500000   0.7500000), wk =   0.0937500
        k(   25) = (   0.7500000  -0.2500000   1.0000000), wk =   0.0937500
        k(   26) = (   0.6250000  -0.1250000   0.8750000), wk =   0.1875000
        k(   27) = (   0.5000000   0.0000000   0.7500000), wk =   0.0937500
        k(   28) = (  -0.2500000  -1.0000000   0.0000000), wk =   0.0468750
        k(   29) = (  -0.5000000  -1.0000000   0.0000000), wk =   0.0234375

     PseudoPot. # 1 for Mg read from file:
     ../../../pseudos/Mg_ONCV_PBE-1.2.upf
     MD5 check sum: 330956729b1f868fdecd9f5113f6a961
     Pseudo is Norm-conserving, Zval = 10.0
     Generated using ONCVPSP code by D. R. Hamann
     Using radial grid of  602 points,  4 beta functions with: 
                l(1) =   0
                l(2) =   0
                l(3) =   1
                l(4) =   1

     PseudoPot. # 2 for O  read from file:
     ../../../pseudos/O_ONCV_PBE-1.2.upf
     MD5 check sum: e36c48deb68f4e355fffe4602be2c42c
     Pseudo is Norm-conserving, Zval =  6.0
     Generated using ONCVPSP code by D. R. Hamann
     Using radial grid of  602 points,  4 beta functions with: 
                l(1) =   0
                l(2) =   0
                l(3) =   1
                l(4) =   1

     Mode symmetry, O_h (m-3m)  point group:


     Electric field:
     Dielectric constant
     Born effective charges as d Force / d E


     Atomic displacements:
     There are    2 irreducible representations

     Representation     1      3 modes -  To be done

     Representation     2      3 modes -  To be done


     PHONON       :      0.52s CPU      0.27s WALL


     Electric Fields Calculation

      iter #   1 total cpu time :     6.1 secs   av.it.:   5.5
      thresh= 1.000E-02 alpha_mix =  0.700 |ddv_scf|^2 =  1.817E-08

      iter #   2 total cpu time :     8.6 secs   av.it.:  10.8
      thresh= 1.348E-05 alpha_mix =  0.700 |ddv_scf|^2 =  1.370E-09

      iter #   3 total cpu time :    11.1 secs   av.it.:  10.3
      thresh= 3.701E-06 alpha_mix =  0.700 |ddv_scf|^2 =  5.384E-11

      iter #   4 total cpu time :    13.6 secs   av.it.:  10.2
      thresh= 7.337E-07 alpha_mix =  0.700 |ddv_scf|^2 =  3.954E-13

      iter #   5 total cpu time :    16.3 secs   av.it.:  11.2
      thresh= 6.288E-08 alpha_mix =  0.700 |ddv_scf|^2 =  1.386E-15

     End of electric fields calculation

          Dielectric constant in cartesian axis 

          (       3.217164871       0.000000000       0.000000000 )
          (       0.000000000       3.217164871      -0.000000000 )
          (       0.000000000      -0.000000000       3.217164871 )

          Effective charges (d Force / dE) in cartesian axis without acoustic sum rule applied (asr)

           atom    1  Mg    Mean Z*:        1.98677
      Ex  (        1.98677       -0.00000       -0.00000 )
      Ey  (       -0.00000        1.98677        0.00000 )
      Ez  (       -0.00000        0.00000        1.98677 )
           atom    2  O     Mean Z*:       -1.98286
      Ex  (       -1.98286        0.00000        0.00000 )
      Ey  (        0.00000       -1.98286       -0.00000 )
      Ez  (        0.00000       -0.00000       -1.98286 )

          Effective charges Sum: Mean:        0.00390
              0.00390        0.00000       -0.00000
              0.00000        0.00390       -0.00000
              0.00000       -0.00000        0.00390

          Effective charges (d Force / dE) in cartesian axis with asr applied: 
           atom    1  Mg    Mean Z*:        1.98482
      E*x (        1.98482       -0.00000       -0.00000 )
      E*y (       -0.00000        1.98482        0.00000 )
      E*z (       -0.00000        0.00000        1.98482 )
           atom    2  O     Mean Z*:       -1.98482
      E*x (       -1.98482        0.00000        0.00000 )
      E*y (        0.00000       -1.98482       -0.00000 )
      E*z (        0.00000       -0.00000       -1.98482 )

     PHONON       :   1m56.35s CPU     17.05s WALL

     INITIALIZATION: 
     phq_setup    :      0.04s CPU      0.01s WALL (       1 calls)
     phq_init     :      0.07s CPU      0.02s WALL (       1 calls)

     phq_init     :      0.07s CPU      0.02s WALL (       1 calls)
     init_vloc    :      0.10s CPU      0.06s WALL (       1 calls)
     init_us_1    :      0.00s CPU      0.00s WALL (       1 calls)
     init_us_2    :      0.39s CPU      0.06s WALL (     290 calls)

     DIELECTRIC CONSTANT AND EFFECTIVE CHARGES:
     solve_e      :    110.72s CPU     16.04s WALL (       1 calls)
     dielec       :      0.06s CPU      0.01s WALL (       1 calls)
     zstar_eu     :      5.03s CPU      0.72s WALL (       1 calls)
     psymdvscf    :      1.20s CPU      0.26s WALL (       5 calls)
     com_dvloc    :      0.05s CPU      0.03s WALL (     174 calls)
                                        0.00s GPU  (     174 calls)

     dvqpsi_us    :      4.82s CPU      0.69s WALL (     174 calls)
                                        0.00s GPU  (     174 calls)
     dvqpsi_us_on :      0.26s CPU      0.05s WALL (     174 calls)

     add_vuspsi   :      1.61s CPU      0.22s WALL (    8593 calls)


      General routines
     calbec       :      3.62s CPU      0.45s WALL (    8796 calls)
     fft          :      0.29s CPU      0.15s WALL (     178 calls)
     ffts         :      0.03s CPU      0.01s WALL (     174 calls)
     fftw         :     73.38s CPU     10.66s WALL (  118814 calls)
     davcio       :      1.40s CPU      0.21s WALL (    2520 calls)
     write_rec    :      0.05s CPU      0.00s WALL (       5 calls)

      Additional routines
     ch_psi       :     92.38s CPU     13.37s WALL (    8593 calls)
     last         :      4.65s CPU      0.72s WALL (    8593 calls)
     Hesh         :      0.68s CPU      0.10s WALL (    8593 calls)
     ch_psi_all_k :      3.84s CPU      0.61s WALL (    8593 calls)
                                        0.00s GPU  (    8593 calls)
     h_psi_bgrp   :     86.48s CPU     12.46s WALL (    8593 calls)
     h_psi        :     86.43s CPU     12.46s WALL (    8593 calls)
     h_psi:pot    :     85.83s CPU     12.36s WALL (    8593 calls)
     h_psi:calbec :      3.56s CPU      0.44s WALL (    8593 calls)
     s_psi_bgrp   :      1.18s CPU      0.15s WALL (   17708 calls)


     PHONON       :   1m56.35s CPU     17.05s WALL


   This run was terminated on:  16:41:50  15Jun2026            

=------------------------------------------------------------------------------=
   JOB DONE.
=------------------------------------------------------------------------------=
