
     Program PWSCF v.7.5 starts on 23Jun2026 at  3:39:39 

     This program is part of the open-source Quantum ESPRESSO suite
     for quantum simulation of materials; please cite
         "P. Giannozzi et al., J. Phys.:Condens. Matter 21 395502 (2009);
         "P. Giannozzi et al., J. Phys.:Condens. Matter 29 465901 (2017);
         "P. Giannozzi et al., J. Chem. Phys. 152 154105 (2020);
          URL http://www.quantum-espresso.org", 
     in publications or presentations arising from this work. More details at
     http://www.quantum-espresso.org/quote

     Parallel version (MPI & OpenMP), running on       4 processor cores
     Number of MPI processes:                 4
     Threads/MPI process:                     1

     MPI processes distributed on     1 nodes
     13653 MiB available memory on the printing compute node when the environment starts

     Reading input from alas.rsddh.in

     Current dimensions of program PWSCF are:
     Max number of different atomic species (ntypx) = 10
     Max number of k-points (npk) =  40000
     Max angular momentum in pseudopotentials (lmaxx) =  4

     IMPORTANT: XC functional enforced from input :
     Exchange-correlation= HSE
                           (   1   4  12   4   0   0   0)
     EXX-fraction              =        0.25
     Any further DFT definition will be discarded
     Please, verify this is what you really want

     EXX Screening parameter changed:    0.6054000
     EXX fraction changed:   1.00
     DD-RSH-CAM (LMODELHF) semilocal: AEXX, BEXX =   0.1246  0.2500
     DD-RSH-CAM (LMODELHF) enabled
     AEXX =  0.1246   BEXX =  0.2500   mu(bohr^-1) =  0.6054

     R & G space division:  proc/nbgrp/npool/nimage =       4
     Subspace diagonalization in iterative solution of the eigenvalue problem:
     a serial algorithm will be used

     EXX: q-point mesh:     6    6    6
     EXX: setup a grid of 216 q-points centered on each k-point
     (k+q)-points:
   0.0000000   0.0000000   0.0000000         1    1
  -0.1666667   0.1666667  -0.1666667         2    1
  -0.3333333   0.3333333  -0.3333333         3    1
   0.5000000  -0.5000000   0.5000000         4    1
   0.3333333  -0.3333333   0.3333333         3   -1
   0.1666667  -0.1666667   0.1666667         2   -1
   0.1666667   0.1666667   0.1666667         2    3
   0.0000000   0.3333333   0.0000000         5    1
  -0.1666667   0.5000000  -0.1666667         6    1
   0.6666667  -0.3333333   0.6666667         7    1
   0.5000000  -0.1666667   0.5000000         8    1
   0.3333333   0.0000000   0.3333333         9    1
   0.3333333   0.3333333   0.3333333         3    3
   0.1666667   0.5000000   0.1666667         6    3
   0.0000000   0.6666667   0.0000000        10    1
   0.8333333  -0.1666667   0.8333333        11    1
   0.6666667   0.0000000   0.6666667        12    1
   0.5000000   0.1666667   0.5000000         8   -3
  -0.5000000  -0.5000000  -0.5000000         4    3
  -0.6666667  -0.3333333  -0.6666667         7    3
  -0.8333333  -0.1666667  -0.8333333        11    3
   0.0000000  -1.0000000   0.0000000        13    1
   0.8333333   0.1666667   0.8333333        11   -3
   0.6666667   0.3333333   0.6666667         7   -3
  -0.3333333  -0.3333333  -0.3333333         3   -3
  -0.5000000  -0.1666667  -0.5000000         8    3
  -0.6666667   0.0000000  -0.6666667        12   -1
  -0.8333333   0.1666667  -0.8333333        11   -1
   0.0000000  -0.6666667   0.0000000        10   -1
  -0.1666667  -0.5000000  -0.1666667         6   -3
  -0.1666667  -0.1666667  -0.1666667         2   -3
  -0.3333333   0.0000000  -0.3333333         9   -1
  -0.5000000   0.1666667  -0.5000000         8   -1
  -0.6666667   0.3333333  -0.6666667         7   -1
   0.1666667  -0.5000000   0.1666667         6   -1
   0.0000000  -0.3333333   0.0000000         5   -1
  -0.1666667  -0.1666667   0.1666667         2    4
  -0.3333333   0.0000000   0.0000000         5   -9
  -0.5000000   0.1666667  -0.1666667         6   10
   0.3333333  -0.6666667   0.6666667         7   10
   0.1666667  -0.5000000   0.5000000         8   10
   0.0000000  -0.3333333   0.3333333         9   10
   0.0000000   0.0000000   0.3333333         5    5
  -0.1666667   0.1666667   0.1666667         2   -2
  -0.3333333   0.3333333   0.0000000         9    7
  -0.5000000   0.5000000  -0.1666667         8   -8
  -0.6666667   0.6666667  -0.3333333         7   -8
   0.1666667  -0.1666667   0.5000000         6   -8
   0.1666667   0.1666667   0.5000000         6    6
   0.0000000   0.3333333   0.3333333         9    9
  -0.1666667   0.5000000   0.1666667         6   -2
   0.6666667  -0.3333333   1.0000000        14    1
   0.5000000  -0.1666667   0.8333333        15    1
  -0.6666667   1.0000000  -0.3333333        14  -21
  -0.6666667  -0.6666667  -0.3333333         7    6
   0.1666667   0.5000000   0.5000000         8  -12
  -1.0000000  -0.3333333  -0.6666667        14   17
   0.8333333  -0.1666667  -0.8333333        11   -2
  -0.3333333  -1.0000000   0.0000000        16    1
   0.5000000   0.1666667   0.8333333        15   -3
  -0.5000000  -0.5000000  -0.1666667         8    6
   0.3333333   0.6666667   0.6666667         7  -12
   0.1666667   0.8333333   0.5000000        15  -12
   0.0000000  -1.0000000   0.3333333        16   17
   0.8333333   0.1666667  -0.8333333        11    4
   0.6666667   0.3333333   1.0000000        14   -3
  -0.3333333  -0.3333333   0.0000000         9   -5
  -0.5000000  -0.1666667  -0.1666667         6  -12
   0.3333333  -1.0000000   0.6666667        14   10
   0.1666667  -0.8333333   0.5000000        15   10
  -1.0000000   0.3333333  -0.6666667        14  -18
  -0.1666667  -0.5000000   0.1666667         6    4
  -0.3333333  -0.3333333   0.3333333         3    4
  -0.5000000  -0.1666667   0.1666667         6   11
  -0.6666667   0.0000000   0.0000000        10   -9
   0.1666667  -0.8333333   0.8333333        11   10
   0.0000000  -0.6666667   0.6666667        12   10
  -0.1666667  -0.5000000   0.5000000         8  -11
  -0.1666667  -0.1666667   0.5000000         6    5
  -0.3333333   0.0000000   0.3333333         9    2
  -0.5000000   0.1666667   0.1666667         6   -9
   0.3333333  -0.6666667   1.0000000        14   13
  -0.8333333   0.5000000  -0.1666667        15   -8
   1.0000000   0.6666667  -0.3333333        14    5
   0.0000000   0.0000000   0.6666667        10    5
  -0.1666667   0.1666667   0.5000000         6   -7
  -0.3333333   0.3333333   0.3333333         3   -2
  -0.5000000   0.5000000   0.1666667         8    7
  -0.6666667   0.6666667   0.0000000        12    7
  -0.8333333   0.8333333  -0.1666667        11   -8
  -0.8333333  -0.8333333  -0.1666667        11    6
  -1.0000000  -0.6666667  -0.3333333        14    6
  -0.1666667   0.5000000   0.5000000         8    9
   0.6666667  -0.3333333  -0.6666667         7   -2
   0.5000000  -0.1666667  -0.8333333        15   -2
   0.3333333   0.0000000  -1.0000000        16  -21
  -0.6666667  -0.6666667   0.0000000        12   -5
  -0.8333333  -0.5000000  -0.1666667        15    6
   0.0000000   0.6666667   0.6666667        12    9
  -0.1666667   0.8333333   0.5000000        15    9
   0.6666667   0.0000000  -0.6666667        12   -2
   0.5000000   0.1666667  -0.8333333        15    4
  -0.5000000  -0.5000000   0.1666667         8   -5
   0.3333333   0.6666667   1.0000000        14  -15
   0.1666667   0.8333333   0.8333333        11  -12
  -1.0000000   0.0000000  -0.3333333        16    9
  -0.1666667  -0.8333333   0.5000000        15  -11
   0.6666667   0.3333333  -0.6666667         7    4
   0.5000000   0.5000000  -0.5000000         4    4
   0.3333333   0.6666667  -0.6666667         7   11
   0.1666667   0.8333333  -0.8333333        11   11
  -1.0000000   0.0000000   0.0000000        13    9
  -0.1666667  -0.8333333   0.8333333        11  -11
  -0.3333333  -0.6666667   0.6666667         7  -11
   0.6666667   0.6666667  -0.3333333         7    5
  -0.5000000  -0.1666667   0.5000000         8   -4
   0.3333333  -1.0000000  -0.6666667        14   -9
   0.1666667  -0.8333333  -0.8333333        11   -9
   1.0000000   0.3333333   0.0000000        16   13
   0.8333333   0.5000000  -0.1666667        15    5
   0.8333333   0.8333333  -0.1666667        11    5
   0.6666667   1.0000000  -0.3333333        14   22
  -0.5000000   0.1666667   0.5000000         8    2
   0.3333333  -0.6666667  -0.6666667         7   -9
  -0.8333333   0.5000000   0.1666667        15    7
   0.0000000  -0.3333333  -1.0000000        16    5
   0.0000000   0.0000000  -1.0000000        13    5
   0.8333333  -0.8333333  -0.1666667        11   -7
   0.6666667  -0.6666667  -0.3333333         7   -7
  -0.5000000   0.5000000   0.5000000         4    2
  -0.6666667   0.6666667   0.3333333         7    7
  -0.8333333   0.8333333   0.1666667        11    7
  -0.8333333  -0.8333333   0.1666667        11   -5
   0.0000000   0.3333333   1.0000000        16   -5
   0.8333333  -0.5000000  -0.1666667        15   -7
  -0.3333333   0.6666667   0.6666667         7    9
   0.5000000  -0.1666667  -0.5000000         8   -2
  -0.6666667  -1.0000000   0.3333333        14  -22
  -0.6666667  -0.6666667   0.3333333         7   -5
  -0.8333333  -0.5000000   0.1666667        15   -5
  -1.0000000  -0.3333333   0.0000000        16  -13
  -0.1666667   0.8333333   0.8333333        11    9
  -0.3333333   1.0000000   0.6666667        14    9
   0.5000000   0.1666667  -0.5000000         8    4
   0.3333333   0.3333333  -0.3333333         3   -4
   0.1666667   0.5000000  -0.5000000         8   11
   0.0000000   0.6666667  -0.6666667        12  -10
  -0.1666667   0.8333333  -0.8333333        11  -10
   0.6666667   0.0000000   0.0000000        10    9
   0.5000000   0.1666667  -0.1666667         6  -11
   0.5000000   0.5000000  -0.1666667         8    5
  -0.6666667  -0.3333333   0.6666667         7   -4
   0.1666667   0.8333333  -0.5000000        15   11
   1.0000000   0.0000000   0.3333333        16   -9
  -0.1666667  -0.8333333  -0.8333333        11   12
  -0.3333333  -0.6666667  -1.0000000        14   15
   0.6666667   0.6666667   0.0000000        12    5
  -0.5000000  -0.1666667   0.8333333        15   -4
  -0.6666667   0.0000000   0.6666667        12    2
   0.1666667  -0.8333333  -0.5000000        15   -9
   0.0000000  -0.6666667  -0.6666667        12   -9
   0.8333333   0.5000000   0.1666667        15   -6
   0.8333333   0.8333333   0.1666667        11   -6
  -0.3333333   0.0000000   1.0000000        16   21
  -0.5000000   0.1666667   0.8333333        15    2
  -0.6666667   0.3333333   0.6666667         7    2
   0.1666667  -0.5000000  -0.5000000         8   -9
   1.0000000   0.6666667   0.3333333        14   -6
   0.0000000   0.0000000  -0.6666667        10   -5
   0.8333333  -0.8333333   0.1666667        11    8
   0.6666667  -0.6666667   0.0000000        12   -7
   0.5000000  -0.5000000  -0.1666667         8   -7
   0.3333333  -0.3333333  -0.3333333         3    2
   0.1666667  -0.1666667  -0.5000000         6    7
   0.1666667   0.1666667  -0.5000000         6   -5
  -1.0000000  -0.6666667   0.3333333        14   -5
   0.8333333  -0.5000000   0.1666667        15    8
  -0.3333333   0.6666667  -1.0000000        14  -13
   0.5000000  -0.1666667  -0.1666667         6    9
   0.3333333   0.0000000  -0.3333333         9   -2
   0.1666667   0.1666667  -0.1666667         2   -4
   0.0000000   0.3333333  -0.3333333         9  -10
  -0.1666667   0.5000000  -0.5000000         8  -10
  -0.3333333   0.6666667  -0.6666667         7  -10
   0.5000000  -0.1666667   0.1666667         6  -10
   0.3333333   0.0000000   0.0000000         5    9
   0.3333333   0.3333333   0.0000000         9    5
   0.1666667   0.5000000  -0.1666667         6   -4
   1.0000000  -0.3333333   0.6666667        14   18
  -0.1666667   0.8333333  -0.5000000        15  -10
  -0.3333333   1.0000000  -0.6666667        14  -10
   0.5000000   0.1666667   0.1666667         6   12
   0.5000000   0.5000000   0.1666667         8   -6
  -0.6666667  -0.3333333  -1.0000000        14    3
  -0.8333333  -0.1666667   0.8333333        11   -4
   0.0000000   1.0000000  -0.3333333        16  -17
  -0.1666667  -0.8333333  -0.5000000        15   12
  -0.3333333  -0.6666667  -0.6666667         7   12
   0.6666667   0.6666667   0.3333333         7   -6
  -0.5000000  -0.1666667  -0.8333333        15    3
   0.3333333   1.0000000   0.0000000        16   -1
  -0.8333333   0.1666667   0.8333333        11    2
   1.0000000   0.3333333   0.6666667        14  -17
  -0.1666667  -0.5000000  -0.5000000         8   12
  -0.1666667  -0.1666667  -0.5000000         6   -6
   0.6666667  -1.0000000   0.3333333        14   21
  -0.5000000   0.1666667  -0.8333333        15   -1
  -0.6666667   0.3333333  -1.0000000        14   -1
   0.1666667  -0.5000000  -0.1666667         6    2
   0.0000000  -0.3333333  -0.3333333         9   -9
   0.0000000   0.0000000  -0.3333333         5   -5
  -0.1666667   0.1666667  -0.5000000         6    8
   0.6666667  -0.6666667   0.3333333         7    8
   0.5000000  -0.5000000   0.1666667         8    8
   0.3333333  -0.3333333   0.0000000         9   -7
   0.1666667  -0.1666667  -0.1666667         2    2

     Parallelization info
     --------------------
     sticks:   dense  smooth     PW     G-vecs:    dense   smooth      PW
     Min         238     238     70                 4798     4798     784
     Max         239     239     71                 4799     4799     787
     Sum         955     955    283                19195    19195    3143

     Using Slab Decomposition



     bravais-lattice index     =            2
     lattice parameter (alat)  =      10.6960  a.u.
     unit-cell volume          =     305.9174 (a.u.)^3
     number of atoms/cell      =            2
     number of atomic types    =            2
     number of electrons       =        16.00
     number of Kohn-Sham states=           16
     kinetic-energy cutoff     =      60.0000  Ry
     charge density cutoff     =     240.0000  Ry
     cutoff for Fock operator  =     240.0000  Ry
     scf convergence threshold =      1.0E-08
     mixing beta               =       0.7000
     number of iterations used =            8  plain     mixing
     Exchange-correlation= HSE
                           (   1   4  12   4   0   0   0)
     EXX-fraction              =        1.00

     celldm(1)=  10.696000  celldm(2)=   0.000000  celldm(3)=   0.000000
     celldm(4)=   0.000000  celldm(5)=   0.000000  celldm(6)=   0.000000

     crystal axes: (cart. coord. in units of alat)
               a(1) = (  -0.500000   0.000000   0.500000 )  
               a(2) = (   0.000000   0.500000   0.500000 )  
               a(3) = (  -0.500000   0.500000   0.000000 )  

     reciprocal axes: (cart. coord. in units 2 pi/alat)
               b(1) = ( -1.000000 -1.000000  1.000000 )  
               b(2) = (  1.000000  1.000000  1.000000 )  
               b(3) = ( -1.000000  1.000000 -1.000000 )  


     PseudoPot. # 1 for Al read from file:
     ../../../../pseudos/Al_ONCV_PBE-1.2.upf
     MD5 check sum: 2d9e7bc02555220d62fad08c3c4858e7
     Pseudo is Norm-conserving, Zval = 11.0
     Generated using ONCVPSP code by D. R. Hamann
     Using radial grid of  602 points,  4 beta functions with: 
                l(1) =   0
                l(2) =   0
                l(3) =   1
                l(4) =   1

     PseudoPot. # 2 for As read from file:
     ../../../../pseudos/As_ONCV_PBE-1.2.upf
     MD5 check sum: a2ff92a4799c87c945fff9e6739df4dd
     Pseudo is Norm-conserving, Zval =  5.0
     Generated using ONCVPSP code by D. R. Hamann
     Using radial grid of  602 points,  6 beta functions with: 
                l(1) =   0
                l(2) =   0
                l(3) =   1
                l(4) =   1
                l(5) =   2
                l(6) =   2

     atomic species   valence    mass     pseudopotential
     Al               11.00    26.98200     Al( 1.00)
     As                5.00    74.92200     As( 1.00)

     24 Sym. Ops. (no inversion) found


                                    s                        frac. trans.

      isym =  1     identity                                     

 cryst.   s( 1) = (     1          0          0      )
                  (     0          1          0      )
                  (     0          0          1      )

 cart.    s( 1) = (  1.0000000  0.0000000  0.0000000 )
                  (  0.0000000  1.0000000  0.0000000 )
                  (  0.0000000  0.0000000  1.0000000 )


      isym =  2     180 deg rotation - cart. axis [0,0,1]        

 cryst.   s( 2) = (     0          1         -1      )
                  (     1          0         -1      )
                  (     0          0         -1      )

 cart.    s( 2) = ( -1.0000000  0.0000000  0.0000000 )
                  (  0.0000000 -1.0000000  0.0000000 )
                  (  0.0000000  0.0000000  1.0000000 )


      isym =  3     180 deg rotation - cart. axis [0,1,0]        

 cryst.   s( 3) = (    -1          0          0      )
                  (    -1          0          1      )
                  (    -1          1          0      )

 cart.    s( 3) = ( -1.0000000  0.0000000  0.0000000 )
                  (  0.0000000  1.0000000  0.0000000 )
                  (  0.0000000  0.0000000 -1.0000000 )


      isym =  4     180 deg rotation - cart. axis [1,0,0]        

 cryst.   s( 4) = (     0         -1          1      )
                  (     0         -1          0      )
                  (     1         -1          0      )

 cart.    s( 4) = (  1.0000000  0.0000000  0.0000000 )
                  (  0.0000000 -1.0000000  0.0000000 )
                  (  0.0000000  0.0000000 -1.0000000 )


      isym =  5     120 deg rotation - cart. axis [-1,-1,-1]     

 cryst.   s( 5) = (    -1          0          1      )
                  (    -1          1          0      )
                  (    -1          0          0      )

 cart.    s( 5) = (  0.0000000  1.0000000  0.0000000 )
                  (  0.0000000  0.0000000  1.0000000 )
                  (  1.0000000  0.0000000  0.0000000 )


      isym =  6     120 deg rotation - cart. axis [-1,1,1]       

 cryst.   s( 6) = (     0          1          0      )
                  (     0          0          1      )
                  (     1          0          0      )

 cart.    s( 6) = (  0.0000000 -1.0000000  0.0000000 )
                  (  0.0000000  0.0000000  1.0000000 )
                  ( -1.0000000  0.0000000  0.0000000 )


      isym =  7     120 deg rotation - cart. axis [1,1,-1]       

 cryst.   s( 7) = (     1          0         -1      )
                  (     0          0         -1      )
                  (     0          1         -1      )

 cart.    s( 7) = (  0.0000000  1.0000000  0.0000000 )
                  (  0.0000000  0.0000000 -1.0000000 )
                  ( -1.0000000  0.0000000  0.0000000 )


      isym =  8     120 deg rotation - cart. axis [1,-1,1]       

 cryst.   s( 8) = (     0         -1          0      )
                  (     1         -1          0      )
                  (     0         -1          1      )

 cart.    s( 8) = (  0.0000000 -1.0000000  0.0000000 )
                  (  0.0000000  0.0000000 -1.0000000 )
                  (  1.0000000  0.0000000  0.0000000 )


      isym =  9     120 deg rotation - cart. axis [1,1,1]        

 cryst.   s( 9) = (     0          0         -1      )
                  (     0          1         -1      )
                  (     1          0         -1      )

 cart.    s( 9) = (  0.0000000  0.0000000  1.0000000 )
                  (  1.0000000  0.0000000  0.0000000 )
                  (  0.0000000  1.0000000  0.0000000 )


      isym = 10     120 deg rotation - cart. axis [-1,1,-1]      

 cryst.   s(10) = (    -1          1          0      )
                  (    -1          0          0      )
                  (    -1          0          1      )

 cart.    s(10) = (  0.0000000  0.0000000  1.0000000 )
                  ( -1.0000000  0.0000000  0.0000000 )
                  (  0.0000000 -1.0000000  0.0000000 )


      isym = 11     120 deg rotation - cart. axis [1,-1,-1]      

 cryst.   s(11) = (     0          0          1      )
                  (     1          0          0      )
                  (     0          1          0      )

 cart.    s(11) = (  0.0000000  0.0000000 -1.0000000 )
                  ( -1.0000000  0.0000000  0.0000000 )
                  (  0.0000000  1.0000000  0.0000000 )


      isym = 12     120 deg rotation - cart. axis [-1,-1,1]      

 cryst.   s(12) = (     1         -1          0      )
                  (     0         -1          1      )
                  (     0         -1          0      )

 cart.    s(12) = (  0.0000000  0.0000000 -1.0000000 )
                  (  1.0000000  0.0000000  0.0000000 )
                  (  0.0000000 -1.0000000  0.0000000 )


      isym = 13     inv. 180 deg rotation - cart. axis [1,1,0]   

 cryst.   s(13) = (     0          1          0      )
                  (     1          0          0      )
                  (     0          0          1      )

 cart.    s(13) = (  0.0000000 -1.0000000  0.0000000 )
                  ( -1.0000000  0.0000000  0.0000000 )
                  (  0.0000000  0.0000000  1.0000000 )


      isym = 14     inv. 180 deg rotation - cart. axis [1,-1,0]  

 cryst.   s(14) = (     1          0         -1      )
                  (     0          1         -1      )
                  (     0          0         -1      )

 cart.    s(14) = (  0.0000000  1.0000000  0.0000000 )
                  (  1.0000000  0.0000000  0.0000000 )
                  (  0.0000000  0.0000000  1.0000000 )


      isym = 15     inv.  90 deg rotation - cart. axis [0,0,-1]  

 cryst.   s(15) = (     0         -1          0      )
                  (     0         -1          1      )
                  (     1         -1          0      )

 cart.    s(15) = (  0.0000000 -1.0000000  0.0000000 )
                  (  1.0000000  0.0000000  0.0000000 )
                  (  0.0000000  0.0000000 -1.0000000 )


      isym = 16     inv.  90 deg rotation - cart. axis [0,0,1]   

 cryst.   s(16) = (    -1          0          1      )
                  (    -1          0          0      )
                  (    -1          1          0      )

 cart.    s(16) = (  0.0000000  1.0000000  0.0000000 )
                  ( -1.0000000  0.0000000  0.0000000 )
                  (  0.0000000  0.0000000 -1.0000000 )


      isym = 17     inv. 180 deg rotation - cart. axis [1,0,1]   

 cryst.   s(17) = (     1          0          0      )
                  (     0          0          1      )
                  (     0          1          0      )

 cart.    s(17) = (  0.0000000  0.0000000 -1.0000000 )
                  (  0.0000000  1.0000000  0.0000000 )
                  ( -1.0000000  0.0000000  0.0000000 )


      isym = 18     inv. 180 deg rotation - cart. axis [-1,0,1]  

 cryst.   s(18) = (    -1          0          0      )
                  (    -1          1          0      )
                  (    -1          0          1      )

 cart.    s(18) = (  0.0000000  0.0000000  1.0000000 )
                  (  0.0000000  1.0000000  0.0000000 )
                  (  1.0000000  0.0000000  0.0000000 )


      isym = 19     inv.  90 deg rotation - cart. axis [0,1,0]   

 cryst.   s(19) = (     0         -1          1      )
                  (     1         -1          0      )
                  (     0         -1          0      )

 cart.    s(19) = (  0.0000000  0.0000000 -1.0000000 )
                  (  0.0000000 -1.0000000  0.0000000 )
                  (  1.0000000  0.0000000  0.0000000 )


      isym = 20     inv.  90 deg rotation - cart. axis [0,-1,0]  

 cryst.   s(20) = (     0          1         -1      )
                  (     0          0         -1      )
                  (     1          0         -1      )

 cart.    s(20) = (  0.0000000  0.0000000  1.0000000 )
                  (  0.0000000 -1.0000000  0.0000000 )
                  ( -1.0000000  0.0000000  0.0000000 )


      isym = 21     inv. 180 deg rotation - cart. axis [0,1,1]   

 cryst.   s(21) = (     1         -1          0      )
                  (     0         -1          0      )
                  (     0         -1          1      )

 cart.    s(21) = (  1.0000000  0.0000000  0.0000000 )
                  (  0.0000000  0.0000000 -1.0000000 )
                  (  0.0000000 -1.0000000  0.0000000 )


      isym = 22     inv. 180 deg rotation - cart. axis [0,1,-1]  

 cryst.   s(22) = (     0          0          1      )
                  (     0          1          0      )
                  (     1          0          0      )

 cart.    s(22) = (  1.0000000  0.0000000  0.0000000 )
                  (  0.0000000  0.0000000  1.0000000 )
                  (  0.0000000  1.0000000  0.0000000 )


      isym = 23     inv.  90 deg rotation - cart. axis [-1,0,0]  

 cryst.   s(23) = (     0          0         -1      )
                  (     1          0         -1      )
                  (     0          1         -1      )

 cart.    s(23) = ( -1.0000000  0.0000000  0.0000000 )
                  (  0.0000000  0.0000000 -1.0000000 )
                  (  0.0000000  1.0000000  0.0000000 )


      isym = 24     inv.  90 deg rotation - cart. axis [1,0,0]   

 cryst.   s(24) = (    -1          1          0      )
                  (    -1          0          1      )
                  (    -1          0          0      )

 cart.    s(24) = ( -1.0000000  0.0000000  0.0000000 )
                  (  0.0000000  0.0000000  1.0000000 )
                  (  0.0000000 -1.0000000  0.0000000 )


     point group T_d (-43m) 
     there are  5 classes
     the character table:

       E     8C3   3C2   6S4   6s_d 
A_1    1.00  1.00  1.00  1.00  1.00
A_2    1.00  1.00  1.00 -1.00 -1.00
E      2.00 -1.00  2.00  0.00  0.00
T_1    3.00  0.00 -1.00  1.00 -1.00
T_2    3.00  0.00 -1.00 -1.00  1.00

     the symmetry operations in each class and the name of the first element:

     E        1
          identity                                               
     8C3      5    7    8    6   12    9   10   11
          120 deg rotation - cart. axis [-1,-1,-1]               
     3C2      2    3    4
          180 deg rotation - cart. axis [0,0,1]                  
     6S4     15   16   20   19   23   24
          inv.  90 deg rotation - cart. axis [0,0,-1]            
     6s_d    13   14   17   18   21   22
          inv. 180 deg rotation - cart. axis [1,1,0]             

   Cartesian axes

     site n.     atom                  positions (alat units)
         1        Al     tau(   1) = (   0.0000000   0.0000000   0.0000000  )
         2        As     tau(   2) = (  -0.2500000   0.2500000   0.2500000  )

   Crystallographic axes

     site n.     atom                  positions (cryst. coord.)
         1        Al     tau(   1) = (  0.0000000  0.0000000  0.0000000  )
         2        As     tau(   2) = (  0.2500000  0.2500000  0.2500000  )

     number of k points=    16
                       cart. coord. in units 2pi/alat
        k(    1) = (   0.0000000   0.0000000   0.0000000), wk =   0.0092593
        k(    2) = (  -0.1666667   0.1666667  -0.1666667), wk =   0.0740741
        k(    3) = (  -0.3333333   0.3333333  -0.3333333), wk =   0.0740741
        k(    4) = (   0.5000000  -0.5000000   0.5000000), wk =   0.0370370
        k(    5) = (   0.0000000   0.3333333   0.0000000), wk =   0.0555556
        k(    6) = (  -0.1666667   0.5000000  -0.1666667), wk =   0.2222222
        k(    7) = (   0.6666667  -0.3333333   0.6666667), wk =   0.2222222
        k(    8) = (   0.5000000  -0.1666667   0.5000000), wk =   0.2222222
        k(    9) = (   0.3333333   0.0000000   0.3333333), wk =   0.1111111
        k(   10) = (   0.0000000   0.6666667   0.0000000), wk =   0.0555556
        k(   11) = (   0.8333333  -0.1666667   0.8333333), wk =   0.2222222
        k(   12) = (   0.6666667  -0.0000000   0.6666667), wk =   0.1111111
        k(   13) = (   0.0000000  -1.0000000   0.0000000), wk =   0.0277778
        k(   14) = (   0.6666667  -0.3333333   1.0000000), wk =   0.2222222
        k(   15) = (   0.5000000  -0.1666667   0.8333333), wk =   0.2222222
        k(   16) = (  -0.3333333  -1.0000000   0.0000000), wk =   0.1111111

                       cryst. coord.
        k(    1) = (   0.0000000   0.0000000   0.0000000), wk =   0.0092593
        k(    2) = (   0.0000000   0.0000000   0.1666667), wk =   0.0740741
        k(    3) = (   0.0000000   0.0000000   0.3333333), wk =   0.0740741
        k(    4) = (   0.0000000   0.0000000  -0.5000000), wk =   0.0370370
        k(    5) = (   0.0000000   0.1666667   0.1666667), wk =   0.0555556
        k(    6) = (   0.0000000   0.1666667   0.3333333), wk =   0.2222222
        k(    7) = (   0.0000000   0.1666667  -0.5000000), wk =   0.2222222
        k(    8) = (   0.0000000   0.1666667  -0.3333333), wk =   0.2222222
        k(    9) = (   0.0000000   0.1666667  -0.1666667), wk =   0.1111111
        k(   10) = (   0.0000000   0.3333333   0.3333333), wk =   0.0555556
        k(   11) = (   0.0000000   0.3333333  -0.5000000), wk =   0.2222222
        k(   12) = (   0.0000000   0.3333333  -0.3333333), wk =   0.1111111
        k(   13) = (   0.0000000  -0.5000000  -0.5000000), wk =   0.0277778
        k(   14) = (   0.1666667   0.3333333  -0.5000000), wk =   0.2222222
        k(   15) = (   0.1666667   0.3333333  -0.3333333), wk =   0.2222222
        k(   16) = (   0.1666667  -0.5000000  -0.3333333), wk =   0.1111111

     Dense  grid:    19195 G-vectors     FFT dimensions: (  40,  40,  40)

     Dynamical RAM for                 wfc:       0.15 MB

     Dynamical RAM for     wfc (w. buffer):       2.49 MB

     Dynamical RAM for                 EXX:     510.22 MB

     Dynamical RAM for           str. fact:       0.15 MB

     Dynamical RAM for           local pot:       0.00 MB

     Dynamical RAM for          nlocal pot:       0.24 MB

     Dynamical RAM for                qrad:       2.72 MB

     Dynamical RAM for          rho,v,vnew:       0.59 MB

     Dynamical RAM for               rhoin:       0.20 MB

     Dynamical RAM for            rho*nmix:       1.17 MB

     Dynamical RAM for           G-vectors:       0.31 MB

     Dynamical RAM for          h,s,v(r/c):       0.05 MB

     Dynamical RAM for          <psi|beta>:       0.01 MB

     Dynamical RAM for                 psi:       0.29 MB

     Dynamical RAM for                hpsi:       0.29 MB

     Dynamical RAM for      wfcinit/wfcrot:       0.30 MB

     Estimated static dynamical RAM per process >     517.74 MB

     Estimated max dynamical RAM per process >     519.55 MB

     Estimated total dynamical RAM >       2.03 GB
     EXX: ACE will be initialized later

     Initial potential from superposition of free atoms

     starting charge      15.8865, renormalised to      16.0000
     Starting wfcs are random

     total cpu time spent up to now is        0.3 secs

     Self-consistent Calculation

     iteration #  1     ecut=    60.00 Ry     beta= 0.70
     Davidson diagonalization with overlap

---- Real-time Memory Report at c_bands before calling an iterative solver
            68 MiB given to the printing process from OS
             0 MiB allocation reported by mallinfo(arena+hblkhd)
         13611 MiB available memory on the node where the printing process lives
------------------
     ethr =  1.00E-02,  avg # of iterations =  7.6

     Threshold (ethr) on eigenvalues was too large:
     Diagonalizing with lowered threshold

     Davidson diagonalization with overlap

---- Real-time Memory Report at c_bands before calling an iterative solver
            69 MiB given to the printing process from OS
             0 MiB allocation reported by mallinfo(arena+hblkhd)
         13608 MiB available memory on the node where the printing process lives
------------------
     ethr =  5.42E-04,  avg # of iterations =  1.9

     total cpu time spent up to now is        0.9 secs

     total energy              =    -151.14247367 Ry
     estimated scf accuracy    <       0.08318034 Ry

     iteration #  2     ecut=    60.00 Ry     beta= 0.70
     Davidson diagonalization with overlap

---- Real-time Memory Report at c_bands before calling an iterative solver
            71 MiB given to the printing process from OS
             0 MiB allocation reported by mallinfo(arena+hblkhd)
         13601 MiB available memory on the node where the printing process lives
------------------
     ethr =  5.20E-04,  avg # of iterations =  2.2

     total cpu time spent up to now is        1.0 secs

     total energy              =    -151.15929471 Ry
     estimated scf accuracy    <       0.01258337 Ry

     iteration #  3     ecut=    60.00 Ry     beta= 0.70
     Davidson diagonalization with overlap

---- Real-time Memory Report at c_bands before calling an iterative solver
            71 MiB given to the printing process from OS
             0 MiB allocation reported by mallinfo(arena+hblkhd)
         13601 MiB available memory on the node where the printing process lives
------------------
     ethr =  7.86E-05,  avg # of iterations =  2.9

     total cpu time spent up to now is        1.2 secs

     total energy              =    -151.16151220 Ry
     estimated scf accuracy    <       0.00048951 Ry

     iteration #  4     ecut=    60.00 Ry     beta= 0.70
     Davidson diagonalization with overlap

---- Real-time Memory Report at c_bands before calling an iterative solver
            71 MiB given to the printing process from OS
             0 MiB allocation reported by mallinfo(arena+hblkhd)
         13599 MiB available memory on the node where the printing process lives
------------------
     ethr =  3.06E-06,  avg # of iterations =  4.3

     total cpu time spent up to now is        1.4 secs

     total energy              =    -151.16153519 Ry
     estimated scf accuracy    <       0.00000408 Ry

     iteration #  5     ecut=    60.00 Ry     beta= 0.70
     Davidson diagonalization with overlap

---- Real-time Memory Report at c_bands before calling an iterative solver
            72 MiB given to the printing process from OS
             0 MiB allocation reported by mallinfo(arena+hblkhd)
         13599 MiB available memory on the node where the printing process lives
------------------
     ethr =  2.55E-08,  avg # of iterations =  2.0

     total cpu time spent up to now is        1.6 secs

     total energy              =    -151.16153660 Ry
     estimated scf accuracy    <       0.00000010 Ry

     iteration #  6     ecut=    60.00 Ry     beta= 0.70
     Davidson diagonalization with overlap

---- Real-time Memory Report at c_bands before calling an iterative solver
            72 MiB given to the printing process from OS
             0 MiB allocation reported by mallinfo(arena+hblkhd)
         13598 MiB available memory on the node where the printing process lives
------------------
     ethr =  6.07E-10,  avg # of iterations =  2.0

     total cpu time spent up to now is        1.8 secs

     End of self-consistent calculation

          k = 0.0000 0.0000 0.0000 (  2421 PWs)   bands (ev):

   -96.9288 -58.4190 -58.4190 -58.4190  -5.8860   5.9772   5.9772   5.9772
     8.0138  10.2533  10.2533  10.2533  14.8592  15.0551  15.0551  17.4336

     occupation numbers 
     1.0000   1.0000   1.0000   1.0000   1.0000   1.0000   1.0000   1.0000
     0.0000   0.0000   0.0000   0.0000   0.0000   0.0000   0.0000   0.0000

          k =-0.1667 0.1667-0.1667 (  2397 PWs)   bands (ev):

   -96.9280 -58.4191 -58.4191 -58.4191  -5.6174   3.8763   5.7123   5.7123
     8.7860  10.6926  10.6926  11.1649  14.2542  14.2542  15.7275  17.0315

     occupation numbers 
     1.0000   1.0000   1.0000   1.0000   1.0000   1.0000   1.0000   1.0000
     0.0000   0.0000   0.0000   0.0000   0.0000   0.0000   0.0000   0.0000

          k =-0.3333 0.3333-0.3333 (  2424 PWs)   bands (ev):

   -96.9290 -58.4193 -58.4191 -58.4191  -4.9374   1.4789   5.3100   5.3100
     8.3327  10.8359  10.8359  13.4698  15.0678  15.0678  15.3527  19.9499

     occupation numbers 
     1.0000   1.0000   1.0000   1.0000   1.0000   1.0000   1.0000   1.0000
     0.0000   0.0000   0.0000   0.0000   0.0000   0.0000   0.0000   0.0000

          k = 0.5000-0.5000 0.5000 (  2392 PWs)   bands (ev):

   -96.9281 -58.4193 -58.4191 -58.4191  -4.4633   0.3988   5.1479   5.1479
     8.1071  10.6554  10.6554  13.7261  17.1604  17.6056  17.6059  18.1457

     occupation numbers 
     1.0000   1.0000   1.0000   1.0000   1.0000   1.0000   1.0000   1.0000
     0.0000   0.0000   0.0000   0.0000   0.0000   0.0000   0.0000   0.0000

          k = 0.0000 0.3333 0.0000 (  2405 PWs)   bands (ev):

   -96.9282 -58.4191 -58.4191 -58.4191  -5.5266   3.9693   5.1896   5.1896
     9.2516   9.8987  11.5919  11.5919  12.9306  15.5479  16.6584  18.2936

     occupation numbers 
     1.0000   1.0000   1.0000   1.0000   1.0000   1.0000   1.0000   1.0000
     0.0000   0.0000   0.0000   0.0000   0.0000   0.0000   0.0000   0.0000

          k =-0.1667 0.5000-0.1667 (  2398 PWs)   bands (ev):

   -96.9282 -58.4192 -58.4191 -58.4191  -4.9720   2.1280   4.5429   4.7428
     9.0553  10.4772  11.5393  12.1960  14.7791  16.1881  17.0523  19.3242

     occupation numbers 
     1.0000   1.0000   1.0000   1.0000   1.0000   1.0000   1.0000   1.0000
     0.0000   0.0000   0.0000   0.0000   0.0000   0.0000   0.0000   0.0000

          k = 0.6667-0.3333 0.6667 (  2390 PWs)   bands (ev):

   -96.9281 -58.4193 -58.4191 -58.4191  -4.3562   0.7066   3.8593   4.7083
     8.9362  10.7548  11.7596  13.1108  15.6802  17.4478  17.9032  18.7758

     occupation numbers 
     1.0000   1.0000   1.0000   1.0000   1.0000   1.0000   1.0000   1.0000
     0.0000   0.0000   0.0000   0.0000   0.0000   0.0000   0.0000   0.0000

          k = 0.5000-0.1667 0.5000 (  2407 PWs)   bands (ev):

   -96.9286 -58.4193 -58.4191 -58.4191  -4.5248   1.0577   3.6525   5.0918
     9.2522  10.8431  11.4197  13.4325  14.4527  16.0561  17.6756  19.3194

     occupation numbers 
     1.0000   1.0000   1.0000   1.0000   1.0000   1.0000   1.0000   1.0000
     0.0000   0.0000   0.0000   0.0000   0.0000   0.0000   0.0000   0.0000

          k = 0.3333 0.0000 0.3333 (  2403 PWs)   bands (ev):

   -96.9283 -58.4192 -58.4191 -58.4191  -5.2035   2.6646   4.2893   5.6341
     9.6385  10.7331  10.9571  11.8806  13.2739  15.5694  17.4043  17.9093

     occupation numbers 
     1.0000   1.0000   1.0000   1.0000   1.0000   1.0000   1.0000   1.0000
     0.0000   0.0000   0.0000   0.0000   0.0000   0.0000   0.0000   0.0000

          k = 0.0000 0.6667 0.0000 (  2397 PWs)   bands (ev):

   -96.9283 -58.4193 -58.4191 -58.4191  -4.5975   1.6830   4.1788   4.1788
     7.9577   8.9734  14.1553  14.1553  14.9963  17.0206  19.6724  20.4198

     occupation numbers 
     1.0000   1.0000   1.0000   1.0000   1.0000   1.0000   1.0000   1.0000
     0.0000   0.0000   0.0000   0.0000   0.0000   0.0000   0.0000   0.0000

          k = 0.8333-0.1667 0.8333 (  2398 PWs)   bands (ev):

   -96.9283 -58.4193 -58.4192 -58.4191  -4.0866   0.8831   3.1778   4.0576
     8.0603   9.6989  13.9291  14.2973  16.7261  17.6791  19.1007  19.4536

     occupation numbers 
     1.0000   1.0000   1.0000   1.0000   1.0000   1.0000   1.0000   1.0000
     0.0000   0.0000   0.0000   0.0000   0.0000   0.0000   0.0000   0.0000

          k = 0.6667-0.0000 0.6667 (  2381 PWs)   bands (ev):

   -96.9278 -58.4193 -58.4192 -58.4191  -4.0493   0.9149   2.4480   4.4356
     8.5647  12.3164  13.2869  13.5949  13.9181  14.9345  20.3507  20.7526

     occupation numbers 
     1.0000   1.0000   1.0000   1.0000   1.0000   1.0000   1.0000   1.0000
     0.0000   0.0000   0.0000   0.0000   0.0000   0.0000   0.0000   0.0000

          k = 0.0000-1.0000 0.0000 (  2402 PWs)   bands (ev):

   -96.9284 -58.4193 -58.4192 -58.4192  -3.9116   0.5392   3.7967   3.7967
     7.4012   8.2657  16.3107  16.3107  17.7173  18.6731  18.6731  19.1437

     occupation numbers 
     1.0000   1.0000   1.0000   1.0000   1.0000   1.0000   1.0000   1.0000
     0.0000   0.0000   0.0000   0.0000   0.0000   0.0000   0.0000   0.0000

          k = 0.6667-0.3333 1.0000 (  2399 PWs)   bands (ev):

   -96.9283 -58.4193 -58.4192 -58.4191  -4.4105   1.3319   3.2499   4.3235
     9.6420  10.5217  11.1322  13.9107  15.2637  16.7239  19.0484  19.9603

     occupation numbers 
     1.0000   1.0000   1.0000   1.0000   1.0000   1.0000   1.0000   1.0000
     0.0000   0.0000   0.0000   0.0000   0.0000   0.0000   0.0000   0.0000

          k = 0.5000-0.1667 0.8333 (  2396 PWs)   bands (ev):

   -96.9282 -58.4193 -58.4192 -58.4191  -4.0489   0.8460   2.7983   3.9432
     9.9113  10.5576  12.6868  13.4021  14.3466  17.5056  18.8392  19.5402

     occupation numbers 
     1.0000   1.0000   1.0000   1.0000   1.0000   1.0000   1.0000   1.0000
     0.0000   0.0000   0.0000   0.0000   0.0000   0.0000   0.0000   0.0000

          k =-0.3333-1.0000 0.0000 (  2402 PWs)   bands (ev):

   -96.9284 -58.4193 -58.4192 -58.4192  -3.8875   0.7759   3.0358   3.2795
     9.1437  10.0901  13.1041  13.8149  16.5872  18.3713  18.5895  19.9060

     occupation numbers 
     1.0000   1.0000   1.0000   1.0000   1.0000   1.0000   1.0000   1.0000
     0.0000   0.0000   0.0000   0.0000   0.0000   0.0000   0.0000   0.0000

     highest occupied, lowest unoccupied level (ev):     5.9772    7.4012

!    total energy              =    -151.16153663 Ry
     estimated scf accuracy    <          3.0E-09 Ry

     convergence has been achieved in   6 iterations

     Using ACE for calculation of exact exchange

     EXX grid:    19195 G-vectors     FFT dimensions: (  40,  40,  40)
     ACE projected onto    16 (nbndproj) and applied to    16 (nbnd) bands

     EXX: now go back to refine exchange calculation

     total cpu time spent up to now is      281.5 secs

     Self-consistent Calculation

     iteration #  1     ecut=    60.00 Ry     beta= 0.70
     Davidson diagonalization with overlap

---- Real-time Memory Report at c_bands before calling an iterative solver
          1059 MiB given to the printing process from OS
             0 MiB allocation reported by mallinfo(arena+hblkhd)
          9661 MiB available memory on the node where the printing process lives
------------------
     ethr =  6.07E-10,  avg # of iterations =  6.1

     total cpu time spent up to now is      281.9 secs

     total energy              =    -151.18412722 Ry
     estimated scf accuracy    <       0.00012854 Ry

     iteration #  2     ecut=    60.00 Ry     beta= 0.70
     Davidson diagonalization with overlap

---- Real-time Memory Report at c_bands before calling an iterative solver
          1059 MiB given to the printing process from OS
             0 MiB allocation reported by mallinfo(arena+hblkhd)
          9658 MiB available memory on the node where the printing process lives
------------------
     ethr =  8.03E-07,  avg # of iterations =  2.0

     total cpu time spent up to now is      282.0 secs

     total energy              =    -151.18415326 Ry
     estimated scf accuracy    <       0.00001559 Ry

     iteration #  3     ecut=    60.00 Ry     beta= 0.70
     Davidson diagonalization with overlap

---- Real-time Memory Report at c_bands before calling an iterative solver
          1059 MiB given to the printing process from OS
             0 MiB allocation reported by mallinfo(arena+hblkhd)
          9658 MiB available memory on the node where the printing process lives
------------------
     ethr =  9.74E-08,  avg # of iterations =  1.9

     total cpu time spent up to now is      282.2 secs

     total energy              =    -151.18415602 Ry
     estimated scf accuracy    <       0.00000063 Ry

     iteration #  4     ecut=    60.00 Ry     beta= 0.70
     Davidson diagonalization with overlap

---- Real-time Memory Report at c_bands before calling an iterative solver
          1059 MiB given to the printing process from OS
             0 MiB allocation reported by mallinfo(arena+hblkhd)
          9657 MiB available memory on the node where the printing process lives
------------------
     ethr =  3.94E-09,  avg # of iterations =  1.2

     total cpu time spent up to now is      282.4 secs

     End of self-consistent calculation

          k = 0.0000 0.0000 0.0000 (  2421 PWs)   bands (ev):

  -102.1539 -60.7845 -60.7845 -60.7845  -7.0434   5.6156   5.6156   5.6156
     8.3070  10.6882  10.6882  10.6882  15.3201  15.5814  15.5814  17.9664

     occupation numbers 
     1.0000   1.0000   1.0000   1.0000   1.0000   1.0000   1.0000   1.0000
     0.0000   0.0000   0.0000   0.0000   0.0000   0.0000   0.0000   0.0000

          k =-0.1667 0.1667-0.1667 (  2397 PWs)   bands (ev):

  -102.1523 -60.7847 -60.7842 -60.7842  -6.7581   3.3924   5.3367   5.3367
     9.1190  11.1499  11.1499  11.6017  14.7406  14.7406  16.2196  17.5565

     occupation numbers 
     1.0000   1.0000   1.0000   1.0000   1.0000   1.0000   1.0000   1.0000
     0.0000   0.0000   0.0000   0.0000   0.0000   0.0000   0.0000   0.0000

          k =-0.3333 0.3333-0.3333 (  2424 PWs)   bands (ev):

  -102.1542 -60.7849 -60.7846 -60.7846  -6.0309   0.8103   4.9110   4.9110
     8.6390  11.2752  11.2752  13.9713  15.6081  15.6081  15.8452  20.6552

     occupation numbers 
     1.0000   1.0000   1.0000   1.0000   1.0000   1.0000   1.0000   1.0000
     0.0000   0.0000   0.0000   0.0000   0.0000   0.0000   0.0000   0.0000

          k = 0.5000-0.5000 0.5000 (  2392 PWs)   bands (ev):

  -102.1525 -60.7851 -60.7843 -60.7843  -5.5263  -0.3500   4.7382   4.7382
     8.3988  11.0757  11.0758  14.1688  17.7533  18.2423  18.2429  18.7945

     occupation numbers 
     1.0000   1.0000   1.0000   1.0000   1.0000   1.0000   1.0000   1.0000
     0.0000   0.0000   0.0000   0.0000   0.0000   0.0000   0.0000   0.0000

          k = 0.0000 0.3333 0.0000 (  2405 PWs)   bands (ev):

  -102.1524 -60.7848 -60.7841 -60.7841  -6.6616   3.4956   4.7841   4.7841
     9.6093  10.2750  12.0900  12.0900  13.3571  16.0946  17.2107  18.8458

     occupation numbers 
     1.0000   1.0000   1.0000   1.0000   1.0000   1.0000   1.0000   1.0000
     0.0000   0.0000   0.0000   0.0000   0.0000   0.0000   0.0000   0.0000

          k =-0.1667 0.5000-0.1667 (  2398 PWs)   bands (ev):

  -102.1526 -60.7848 -60.7845 -60.7843  -6.0691   1.5089   4.1013   4.3084
     9.3856  10.9084  11.9577  12.7073  15.3490  16.7635  17.5871  19.9618

     occupation numbers 
     1.0000   1.0000   1.0000   1.0000   1.0000   1.0000   1.0000   1.0000
     0.0000   0.0000   0.0000   0.0000   0.0000   0.0000   0.0000   0.0000

          k = 0.6667-0.3333 0.6667 (  2390 PWs)   bands (ev):

  -102.1522 -60.7851 -60.7844 -60.7843  -5.4113  -0.0210   3.3716   4.2716
     9.2620  11.1668  12.2336  13.6258  16.2178  18.0815  18.4944  19.4446

     occupation numbers 
     1.0000   1.0000   1.0000   1.0000   1.0000   1.0000   1.0000   1.0000
     0.0000   0.0000   0.0000   0.0000   0.0000   0.0000   0.0000   0.0000

          k = 0.5000-0.1667 0.5000 (  2407 PWs)   bands (ev):

  -102.1529 -60.7849 -60.7846 -60.7843  -5.5911   0.3567   3.1488   4.6788
     9.6042  11.2453  11.8927  13.9608  14.9721  16.6386  18.2454  20.0307

     occupation numbers 
     1.0000   1.0000   1.0000   1.0000   1.0000   1.0000   1.0000   1.0000
     0.0000   0.0000   0.0000   0.0000   0.0000   0.0000   0.0000   0.0000

          k = 0.3333 0.0000 0.3333 (  2403 PWs)   bands (ev):

  -102.1524 -60.7849 -60.7843 -60.7841  -6.3168   2.0878   3.8284   5.2522
    10.0335  11.1291  11.4396  12.3374  13.7169  16.1340  18.0039  18.4510

     occupation numbers 
     1.0000   1.0000   1.0000   1.0000   1.0000   1.0000   1.0000   1.0000
     0.0000   0.0000   0.0000   0.0000   0.0000   0.0000   0.0000   0.0000

          k = 0.0000 0.6667 0.0000 (  2397 PWs)   bands (ev):

  -102.1534 -60.7849 -60.7848 -60.7848  -5.6671   1.0264   3.7074   3.7074
     8.2351   9.2852  14.7675  14.7676  15.5741  17.6138  20.3494  21.0858

     occupation numbers 
     1.0000   1.0000   1.0000   1.0000   1.0000   1.0000   1.0000   1.0000
     0.0000   0.0000   0.0000   0.0000   0.0000   0.0000   0.0000   0.0000

          k = 0.8333-0.1667 0.8333 (  2398 PWs)   bands (ev):

  -102.1527 -60.7851 -60.7845 -60.7845  -5.1214   0.1627   2.6420   3.5788
     8.3376  10.0532  14.5047  14.8892  17.3780  18.3207  19.8421  20.1440

     occupation numbers 
     1.0000   1.0000   1.0000   1.0000   1.0000   1.0000   1.0000   1.0000
     0.0000   0.0000   0.0000   0.0000   0.0000   0.0000   0.0000   0.0000

          k = 0.6667-0.0000 0.6667 (  2381 PWs)   bands (ev):

  -102.1529 -60.7849 -60.7849 -60.7848  -5.0785   0.1952   1.8575   3.9818
     8.8665  12.7816  13.8522  14.1578  14.4797  15.4591  20.9478  21.3778

     occupation numbers 
     1.0000   1.0000   1.0000   1.0000   1.0000   1.0000   1.0000   1.0000
     0.0000   0.0000   0.0000   0.0000   0.0000   0.0000   0.0000   0.0000

          k = 0.0000-1.0000 0.0000 (  2402 PWs)   bands (ev):

  -102.1525 -60.7852 -60.7844 -60.7844  -4.9345  -0.2091   3.3007   3.3007
     7.6512   8.5457  17.0194  17.0194  18.3903  19.3457  19.3457  19.8064

     occupation numbers 
     1.0000   1.0000   1.0000   1.0000   1.0000   1.0000   1.0000   1.0000
     0.0000   0.0000   0.0000   0.0000   0.0000   0.0000   0.0000   0.0000

          k = 0.6667-0.3333 1.0000 (  2399 PWs)   bands (ev):

  -102.1525 -60.7850 -60.7844 -60.7843  -5.4691   0.6495   2.7172   3.8648
     9.9955  10.9393  11.5542  14.4959  15.8344  17.3607  19.6668  20.6665

     occupation numbers 
     1.0000   1.0000   1.0000   1.0000   1.0000   1.0000   1.0000   1.0000
     0.0000   0.0000   0.0000   0.0000   0.0000   0.0000   0.0000   0.0000

          k = 0.5000-0.1667 0.8333 (  2396 PWs)   bands (ev):

  -102.1526 -60.7849 -60.7846 -60.7845  -5.0804   0.1230   2.2330   3.4611
    10.2654  10.9744  13.2056  13.9139  14.9353  18.1381  19.5431  20.1281

     occupation numbers 
     1.0000   1.0000   1.0000   1.0000   1.0000   1.0000   1.0000   1.0000
     0.0000   0.0000   0.0000   0.0000   0.0000   0.0000   0.0000   0.0000

          k =-0.3333-1.0000 0.0000 (  2402 PWs)   bands (ev):

  -102.1526 -60.7851 -60.7845 -60.7844  -4.9079   0.0441   2.4862   2.7577
     9.4674  10.4682  13.6426  14.3651  17.2594  19.1036  19.2488  20.6173

     occupation numbers 
     1.0000   1.0000   1.0000   1.0000   1.0000   1.0000   1.0000   1.0000
     0.0000   0.0000   0.0000   0.0000   0.0000   0.0000   0.0000   0.0000

     highest occupied, lowest unoccupied level (ev):     5.6156    7.6512

!    total energy              =    -151.18415606 Ry
     estimated scf accuracy    <          3.1E-09 Ry

     convergence has been achieved in   4 iterations

     Using ACE for calculation of exact exchange
     ACE projected onto    16 (nbndproj) and applied to    16 (nbnd) bands

     total energy              =    -151.18421104 Ry
     Harris-Foulkes estimate   =    -151.18421104 Ry
     est. exchange err (dexx)  =       0.00005498 Ry
     - averaged Fock potential =       6.75997699 Ry
     + Fock energy (ACE)       =      -3.38096486 Ry

     EXX: now go back to refine exchange calculation

     total cpu time spent up to now is      546.4 secs

     Self-consistent Calculation

     iteration #  1     ecut=    60.00 Ry     beta= 0.70
     Davidson diagonalization with overlap

---- Real-time Memory Report at c_bands before calling an iterative solver
          1059 MiB given to the printing process from OS
             0 MiB allocation reported by mallinfo(arena+hblkhd)
          9665 MiB available memory on the node where the printing process lives
------------------
     ethr =  3.94E-09,  avg # of iterations =  3.1

     total cpu time spent up to now is      546.6 secs

     total energy              =    -151.18421527 Ry
     estimated scf accuracy    <       0.00000116 Ry

     iteration #  2     ecut=    60.00 Ry     beta= 0.70
     Davidson diagonalization with overlap

---- Real-time Memory Report at c_bands before calling an iterative solver
          1059 MiB given to the printing process from OS
             0 MiB allocation reported by mallinfo(arena+hblkhd)
          9660 MiB available memory on the node where the printing process lives
------------------
     ethr =  7.25E-09,  avg # of iterations =  2.0

     total cpu time spent up to now is      546.7 secs

     total energy              =    -151.18421548 Ry
     estimated scf accuracy    <       0.00000013 Ry

     iteration #  3     ecut=    60.00 Ry     beta= 0.70
     Davidson diagonalization with overlap

---- Real-time Memory Report at c_bands before calling an iterative solver
          1059 MiB given to the printing process from OS
             0 MiB allocation reported by mallinfo(arena+hblkhd)
          9659 MiB available memory on the node where the printing process lives
------------------
     ethr =  8.39E-10,  avg # of iterations =  1.9

     total cpu time spent up to now is      546.9 secs

     End of self-consistent calculation

          k = 0.0000 0.0000 0.0000 (  2421 PWs)   bands (ev):

  -102.1569 -60.7926 -60.7926 -60.7926  -7.0418   5.6082   5.6082   5.6082
     8.3205  10.6920  10.6921  10.6921  15.3236  15.5805  15.5805  17.9680

     occupation numbers 
     1.0000   1.0000   1.0000   1.0000   1.0000   1.0000   1.0000   1.0000
     0.0000   0.0000   0.0000   0.0000   0.0000   0.0000   0.0000   0.0000

          k =-0.1667 0.1667-0.1667 (  2397 PWs)   bands (ev):

  -102.1554 -60.7929 -60.7924 -60.7924  -6.7564   3.3922   5.3302   5.3302
     9.1283  11.1529  11.1529  11.6041  14.7401  14.7401  16.2221  17.5585

     occupation numbers 
     1.0000   1.0000   1.0000   1.0000   1.0000   1.0000   1.0000   1.0000
     0.0000   0.0000   0.0000   0.0000   0.0000   0.0000   0.0000   0.0000

          k =-0.3333 0.3333-0.3333 (  2424 PWs)   bands (ev):

  -102.1571 -60.7931 -60.7928 -60.7928  -6.0298   0.8118   4.9052   4.9052
     8.6478  11.2778  11.2778  13.9737  15.6079  15.6079  15.8474  20.6567

     occupation numbers 
     1.0000   1.0000   1.0000   1.0000   1.0000   1.0000   1.0000   1.0000
     0.0000   0.0000   0.0000   0.0000   0.0000   0.0000   0.0000   0.0000

          k = 0.5000-0.5000 0.5000 (  2392 PWs)   bands (ev):

  -102.1555 -60.7933 -60.7925 -60.7925  -5.5250  -0.3482   4.7326   4.7326
     8.4077  11.0782  11.0782  14.1713  17.7553  18.2429  18.2432  18.7934

     occupation numbers 
     1.0000   1.0000   1.0000   1.0000   1.0000   1.0000   1.0000   1.0000
     0.0000   0.0000   0.0000   0.0000   0.0000   0.0000   0.0000   0.0000

          k = 0.0000 0.3333 0.0000 (  2405 PWs)   bands (ev):

  -102.1555 -60.7930 -60.7923 -60.7923  -6.6599   3.4959   4.7791   4.7791
     9.6143  10.2812  12.0917  12.0917  13.3575  16.0936  17.2132  18.8470

     occupation numbers 
     1.0000   1.0000   1.0000   1.0000   1.0000   1.0000   1.0000   1.0000
     0.0000   0.0000   0.0000   0.0000   0.0000   0.0000   0.0000   0.0000

          k =-0.1667 0.5000-0.1667 (  2398 PWs)   bands (ev):

  -102.1556 -60.7929 -60.7927 -60.7925  -6.0677   1.5101   4.0987   4.3040
     9.3903  10.9129  11.9585  12.7084  15.3504  16.7631  17.5885  19.9631

     occupation numbers 
     1.0000   1.0000   1.0000   1.0000   1.0000   1.0000   1.0000   1.0000
     0.0000   0.0000   0.0000   0.0000   0.0000   0.0000   0.0000   0.0000

          k = 0.6667-0.3333 0.6667 (  2390 PWs)   bands (ev):

  -102.1553 -60.7932 -60.7926 -60.7925  -5.4101  -0.0192   3.3704   4.2670
     9.2671  11.1692  12.2350  13.6272  16.2193  18.0816  18.4958  19.4438

     occupation numbers 
     1.0000   1.0000   1.0000   1.0000   1.0000   1.0000   1.0000   1.0000
     0.0000   0.0000   0.0000   0.0000   0.0000   0.0000   0.0000   0.0000

          k = 0.5000-0.1667 0.5000 (  2407 PWs)   bands (ev):

  -102.1560 -60.7931 -60.7928 -60.7925  -5.5899   0.3584   3.1478   4.6735
     9.6099  11.2471  11.8946  13.9626  14.9716  16.6403  18.2462  20.0303

     occupation numbers 
     1.0000   1.0000   1.0000   1.0000   1.0000   1.0000   1.0000   1.0000
     0.0000   0.0000   0.0000   0.0000   0.0000   0.0000   0.0000   0.0000

          k = 0.3333 0.0000 0.3333 (  2403 PWs)   bands (ev):

  -102.1555 -60.7930 -60.7925 -60.7923  -6.3153   2.0888   3.8263   5.2459
    10.0407  11.1302  11.4427  12.3394  13.7163  16.1349  18.0056  18.4515

     occupation numbers 
     1.0000   1.0000   1.0000   1.0000   1.0000   1.0000   1.0000   1.0000
     0.0000   0.0000   0.0000   0.0000   0.0000   0.0000   0.0000   0.0000

          k = 0.0000 0.6667 0.0000 (  2397 PWs)   bands (ev):

  -102.1564 -60.7930 -60.7929 -60.7929  -5.6661   1.0278   3.7036   3.7036
     8.2408   9.2895  14.7686  14.7686  15.5762  17.6130  20.3511  21.0857

     occupation numbers 
     1.0000   1.0000   1.0000   1.0000   1.0000   1.0000   1.0000   1.0000
     0.0000   0.0000   0.0000   0.0000   0.0000   0.0000   0.0000   0.0000

          k = 0.8333-0.1667 0.8333 (  2398 PWs)   bands (ev):

  -102.1557 -60.7932 -60.7927 -60.7927  -5.1204   0.1645   2.6410   3.5749
     8.3426  10.0556  14.5065  14.8903  17.3802  18.3207  19.8425  20.1428

     occupation numbers 
     1.0000   1.0000   1.0000   1.0000   1.0000   1.0000   1.0000   1.0000
     0.0000   0.0000   0.0000   0.0000   0.0000   0.0000   0.0000   0.0000

          k = 0.6667-0.0000 0.6667 (  2381 PWs)   bands (ev):

  -102.1559 -60.7931 -60.7931 -60.7929  -5.0778   0.1972   1.8575   3.9776
     8.8715  12.7825  13.8540  14.1593  14.4820  15.4582  20.9485  21.3774

     occupation numbers 
     1.0000   1.0000   1.0000   1.0000   1.0000   1.0000   1.0000   1.0000
     0.0000   0.0000   0.0000   0.0000   0.0000   0.0000   0.0000   0.0000

          k = 0.0000-1.0000 0.0000 (  2402 PWs)   bands (ev):

  -102.1556 -60.7934 -60.7926 -60.7926  -4.9334  -0.2072   3.2971   3.2971
     7.6567   8.5503  17.0221  17.0221  18.3932  19.3438  19.3438  19.8068

     occupation numbers 
     1.0000   1.0000   1.0000   1.0000   1.0000   1.0000   1.0000   1.0000
     0.0000   0.0000   0.0000   0.0000   0.0000   0.0000   0.0000   0.0000

          k = 0.6667-0.3333 1.0000 (  2399 PWs)   bands (ev):

  -102.1556 -60.7932 -60.7926 -60.7926  -5.4679   0.6512   2.7163   3.8619
     9.9978  10.9428  11.5558  14.4969  15.8352  17.3619  19.6673  20.6655

     occupation numbers 
     1.0000   1.0000   1.0000   1.0000   1.0000   1.0000   1.0000   1.0000
     0.0000   0.0000   0.0000   0.0000   0.0000   0.0000   0.0000   0.0000

          k = 0.5000-0.1667 0.8333 (  2396 PWs)   bands (ev):

  -102.1557 -60.7931 -60.7928 -60.7927  -5.0794   0.1250   2.2326   3.4590
    10.2672  10.9772  13.2075  13.9145  14.9366  18.1391  19.5426  20.1288

     occupation numbers 
     1.0000   1.0000   1.0000   1.0000   1.0000   1.0000   1.0000   1.0000
     0.0000   0.0000   0.0000   0.0000   0.0000   0.0000   0.0000   0.0000

          k =-0.3333-1.0000 0.0000 (  2402 PWs)   bands (ev):

  -102.1557 -60.7933 -60.7927 -60.7926  -4.9070   0.0460   2.4848   2.7569
     9.4696  10.4706  13.6445  14.3662  17.2613  19.1029  19.2500  20.6166

     occupation numbers 
     1.0000   1.0000   1.0000   1.0000   1.0000   1.0000   1.0000   1.0000
     0.0000   0.0000   0.0000   0.0000   0.0000   0.0000   0.0000   0.0000

     highest occupied, lowest unoccupied level (ev):     5.6082    7.6567

!    total energy              =    -151.18421550 Ry
     estimated scf accuracy    <          6.4E-09 Ry

     convergence has been achieved in   3 iterations

     Using ACE for calculation of exact exchange
     ACE projected onto    16 (nbndproj) and applied to    16 (nbnd) bands

     total energy              =    -151.18421593 Ry
     Harris-Foulkes estimate   =    -151.18421593 Ry
     est. exchange err (dexx)  =       0.00000043 Ry
     - averaged Fock potential =       6.76212454 Ry
     + Fock energy (ACE)       =      -3.38116012 Ry

     EXX: now go back to refine exchange calculation

     total cpu time spent up to now is      791.9 secs

     Self-consistent Calculation

     iteration #  1     ecut=    60.00 Ry     beta= 0.70
     Davidson diagonalization with overlap

---- Real-time Memory Report at c_bands before calling an iterative solver
          1059 MiB given to the printing process from OS
             0 MiB allocation reported by mallinfo(arena+hblkhd)
          9663 MiB available memory on the node where the printing process lives
------------------
     ethr =  8.39E-10,  avg # of iterations =  2.0

     Threshold (ethr) on eigenvalues was too large:
     Diagonalizing with lowered threshold

     Davidson diagonalization with overlap

---- Real-time Memory Report at c_bands before calling an iterative solver
          1059 MiB given to the printing process from OS
             0 MiB allocation reported by mallinfo(arena+hblkhd)
          9661 MiB available memory on the node where the printing process lives
------------------
     ethr =  5.51E-11,  avg # of iterations =  1.0

     total cpu time spent up to now is      792.2 secs

     End of self-consistent calculation

          k = 0.0000 0.0000 0.0000 (  2421 PWs)   bands (ev):

  -102.1571 -60.7932 -60.7932 -60.7932  -7.0417   5.6074   5.6074   5.6074
     8.3219  10.6924  10.6924  10.6924  15.3240  15.5804  15.5804  17.9682

     occupation numbers 
     1.0000   1.0000   1.0000   1.0000   1.0000   1.0000   1.0000   1.0000
     0.0000   0.0000   0.0000   0.0000   0.0000   0.0000   0.0000   0.0000

          k =-0.1667 0.1667-0.1667 (  2397 PWs)   bands (ev):

  -102.1556 -60.7934 -60.7929 -60.7929  -6.7563   3.3922   5.3295   5.3295
     9.1292  11.1532  11.1532  11.6044  14.7401  14.7401  16.2224  17.5588

     occupation numbers 
     1.0000   1.0000   1.0000   1.0000   1.0000   1.0000   1.0000   1.0000
     0.0000   0.0000   0.0000   0.0000   0.0000   0.0000   0.0000   0.0000

          k =-0.3333 0.3333-0.3333 (  2424 PWs)   bands (ev):

  -102.1573 -60.7936 -60.7933 -60.7933  -6.0297   0.8119   4.9046   4.9046
     8.6487  11.2780  11.2780  13.9740  15.6079  15.6079  15.8477  20.6569

     occupation numbers 
     1.0000   1.0000   1.0000   1.0000   1.0000   1.0000   1.0000   1.0000
     0.0000   0.0000   0.0000   0.0000   0.0000   0.0000   0.0000   0.0000

          k = 0.5000-0.5000 0.5000 (  2392 PWs)   bands (ev):

  -102.1557 -60.7938 -60.7931 -60.7931  -5.5250  -0.3480   4.7319   4.7319
     8.4087  11.0784  11.0784  14.1717  17.7554  18.2430  18.2431  18.7933

     occupation numbers 
     1.0000   1.0000   1.0000   1.0000   1.0000   1.0000   1.0000   1.0000
     0.0000   0.0000   0.0000   0.0000   0.0000   0.0000   0.0000   0.0000

          k = 0.0000 0.3333 0.0000 (  2405 PWs)   bands (ev):

  -102.1556 -60.7935 -60.7929 -60.7929  -6.6598   3.4959   4.7785   4.7785
     9.6148  10.2819  12.0918  12.0918  13.3576  16.0935  17.2135  18.8472

     occupation numbers 
     1.0000   1.0000   1.0000   1.0000   1.0000   1.0000   1.0000   1.0000
     0.0000   0.0000   0.0000   0.0000   0.0000   0.0000   0.0000   0.0000

          k =-0.1667 0.5000-0.1667 (  2398 PWs)   bands (ev):

  -102.1558 -60.7935 -60.7932 -60.7931  -6.0677   1.5102   4.0984   4.3035
     9.3907  10.9134  11.9586  12.7086  15.3506  16.7630  17.5887  19.9633

     occupation numbers 
     1.0000   1.0000   1.0000   1.0000   1.0000   1.0000   1.0000   1.0000
     0.0000   0.0000   0.0000   0.0000   0.0000   0.0000   0.0000   0.0000

          k = 0.6667-0.3333 0.6667 (  2390 PWs)   bands (ev):

  -102.1555 -60.7938 -60.7932 -60.7930  -5.4101  -0.0191   3.3702   4.2665
     9.2677  11.1694  12.2351  13.6273  16.2195  18.0817  18.4959  19.4437

     occupation numbers 
     1.0000   1.0000   1.0000   1.0000   1.0000   1.0000   1.0000   1.0000
     0.0000   0.0000   0.0000   0.0000   0.0000   0.0000   0.0000   0.0000

          k = 0.5000-0.1667 0.5000 (  2407 PWs)   bands (ev):

  -102.1562 -60.7936 -60.7933 -60.7931  -5.5899   0.3585   3.1476   4.6729
     9.6105  11.2473  11.8949  13.9627  14.9716  16.6405  18.2463  20.0303

     occupation numbers 
     1.0000   1.0000   1.0000   1.0000   1.0000   1.0000   1.0000   1.0000
     0.0000   0.0000   0.0000   0.0000   0.0000   0.0000   0.0000   0.0000

          k = 0.3333 0.0000 0.3333 (  2403 PWs)   bands (ev):

  -102.1557 -60.7936 -60.7931 -60.7929  -6.3152   2.0889   3.8260   5.2452
    10.0414  11.1303  11.4430  12.3396  13.7162  16.1350  18.0058  18.4516

     occupation numbers 
     1.0000   1.0000   1.0000   1.0000   1.0000   1.0000   1.0000   1.0000
     0.0000   0.0000   0.0000   0.0000   0.0000   0.0000   0.0000   0.0000

          k = 0.0000 0.6667 0.0000 (  2397 PWs)   bands (ev):

  -102.1566 -60.7936 -60.7935 -60.7935  -5.6660   1.0280   3.7032   3.7032
     8.2415   9.2899  14.7687  14.7687  15.5764  17.6130  20.3513  21.0858

     occupation numbers 
     1.0000   1.0000   1.0000   1.0000   1.0000   1.0000   1.0000   1.0000
     0.0000   0.0000   0.0000   0.0000   0.0000   0.0000   0.0000   0.0000

          k = 0.8333-0.1667 0.8333 (  2398 PWs)   bands (ev):

  -102.1559 -60.7937 -60.7933 -60.7932  -5.1204   0.1647   2.6408   3.5745
     8.3431  10.0559  14.5067  14.8904  17.3803  18.3207  19.8426  20.1427

     occupation numbers 
     1.0000   1.0000   1.0000   1.0000   1.0000   1.0000   1.0000   1.0000
     0.0000   0.0000   0.0000   0.0000   0.0000   0.0000   0.0000   0.0000

          k = 0.6667-0.0000 0.6667 (  2381 PWs)   bands (ev):

  -102.1560 -60.7936 -60.7936 -60.7935  -5.0778   0.1974   1.8574   3.9771
     8.8720  12.7825  13.8542  14.1595  14.4822  15.4581  20.9486  21.3774

     occupation numbers 
     1.0000   1.0000   1.0000   1.0000   1.0000   1.0000   1.0000   1.0000
     0.0000   0.0000   0.0000   0.0000   0.0000   0.0000   0.0000   0.0000

          k = 0.0000-1.0000 0.0000 (  2402 PWs)   bands (ev):

  -102.1558 -60.7939 -60.7931 -60.7931  -4.9334  -0.2071   3.2967   3.2967
     7.6573   8.5508  17.0224  17.0224  18.3934  19.3436  19.3436  19.8069

     occupation numbers 
     1.0000   1.0000   1.0000   1.0000   1.0000   1.0000   1.0000   1.0000
     0.0000   0.0000   0.0000   0.0000   0.0000   0.0000   0.0000   0.0000

          k = 0.6667-0.3333 1.0000 (  2399 PWs)   bands (ev):

  -102.1557 -60.7937 -60.7931 -60.7931  -5.4678   0.6513   2.7161   3.8616
     9.9981  10.9432  11.5560  14.4970  15.8353  17.3620  19.6674  20.6645

     occupation numbers 
     1.0000   1.0000   1.0000   1.0000   1.0000   1.0000   1.0000   1.0000
     0.0000   0.0000   0.0000   0.0000   0.0000   0.0000   0.0000   0.0000

          k = 0.5000-0.1667 0.8333 (  2396 PWs)   bands (ev):

  -102.1558 -60.7936 -60.7933 -60.7933  -5.0794   0.1252   2.2325   3.4587
    10.2674  10.9776  13.2077  13.9146  14.9367  18.1392  19.5425  20.1290

     occupation numbers 
     1.0000   1.0000   1.0000   1.0000   1.0000   1.0000   1.0000   1.0000
     0.0000   0.0000   0.0000   0.0000   0.0000   0.0000   0.0000   0.0000

          k =-0.3333-1.0000 0.0000 (  2402 PWs)   bands (ev):

  -102.1558 -60.7938 -60.7933 -60.7931  -4.9070   0.0462   2.4846   2.7568
     9.4698  10.4709  13.6448  14.3663  17.2614  19.1028  19.2502  20.6165

     occupation numbers 
     1.0000   1.0000   1.0000   1.0000   1.0000   1.0000   1.0000   1.0000
     0.0000   0.0000   0.0000   0.0000   0.0000   0.0000   0.0000   0.0000

     highest occupied, lowest unoccupied level (ev):     5.6074    7.6573

!    total energy              =    -151.18421597 Ry
     estimated scf accuracy    <          8.9E-09 Ry

     convergence has been achieved in   1 iterations

     Using ACE for calculation of exact exchange
     ACE projected onto    16 (nbndproj) and applied to    16 (nbnd) bands

!!   total energy              =    -151.18421597 Ry
     Harris-Foulkes estimate   =    -151.18421598 Ry
     est. exchange err (dexx)  =          5.1E-09 Ry
     - averaged Fock potential =       6.76234149 Ry
     + Fock energy (ACE)       =      -3.38118137 Ry

     EXX self-consistency reached

     Writing all to output data dir ./out_rs/alasrs.save/ :
     XML data file, charge density, pseudopotentials, collected wavefunctions

     init_run     :      0.27s CPU      0.28s WALL (       1 calls)
     electrons    :      2.88s CPU      3.07s WALL (       4 calls)

     Called by init_run:
     aceinit0     :      0.00s CPU      0.00s WALL (       1 calls)
     wfcinit      :      0.05s CPU      0.06s WALL (       1 calls)
     wfcinit:wfcr :      0.04s CPU      0.05s WALL (      16 calls)
     potinit      :      0.01s CPU      0.01s WALL (       1 calls)
     hinit0       :      0.20s CPU      0.20s WALL (       1 calls)

     Called by electrons:
     c_bands      :      2.38s CPU      2.55s WALL (      16 calls)
     sum_band     :      0.38s CPU      0.41s WALL (      16 calls)
     v_of_rho     :      0.12s CPU      0.12s WALL (      16 calls)
     v_h          :      0.00s CPU      0.00s WALL (      16 calls)
     v_xc         :      0.11s CPU      0.12s WALL (      16 calls)
     mix_rho      :      0.00s CPU      0.00s WALL (      16 calls)

     Called by c_bands:
     init_us_2    :      0.05s CPU      0.06s WALL (     528 calls)
     cegterg      :      2.28s CPU      2.45s WALL (     256 calls)

     Called by sum_band:
     sum_band:wei :      0.00s CPU      0.00s WALL (      16 calls)
     sum_band:loo :      0.38s CPU      0.40s WALL (      16 calls)
     sum_band:buf :      0.00s CPU      0.00s WALL (     256 calls)
     sum_band:ini :      0.03s CPU      0.03s WALL (     256 calls)

     Called by *egterg:
     cdiaghg      :      0.14s CPU      0.15s WALL (     884 calls)
     cegterg:over :      0.07s CPU      0.08s WALL (     708 calls)
     cegterg:upda :      0.03s CPU      0.03s WALL (     708 calls)
     cegterg:last :      0.05s CPU      0.05s WALL (     585 calls)
     h_psi        :      1.96s CPU      2.10s WALL (     980 calls)
     g_psi        :      0.01s CPU      0.02s WALL (     708 calls)

     Called by h_psi:
     h_psi:calbec :      0.07s CPU      0.07s WALL (     980 calls)
     vloc_psi     :      1.81s CPU      1.95s WALL (     980 calls)
                                        0.00s GPU  (     980 calls)
     add_vuspsi   :      0.03s CPU      0.03s WALL (     980 calls)

     General routines
     calbec       :      0.11s CPU      0.12s WALL (    1753 calls)
     fft          :      0.20s CPU      0.21s WALL (     156 calls)
     ffts         :      0.00s CPU      0.00s WALL (      16 calls)
     fftw         :      1.95s CPU      2.09s WALL (   26376 calls)
     fftc         :    695.35s CPU    772.71s WALL ( 7077888 calls)
     fftcw        :      0.20s CPU      0.28s WALL (    3072 calls)

     Parallel routines

     EXX routines
     exx_grid     :      0.00s CPU      0.01s WALL (       1 calls)
     exxinit      :      2.89s CPU      4.13s WALL (       4 calls)
     vexx         :    926.69s CPU   1029.22s WALL (      64 calls)
     matcalc      :      0.04s CPU      0.05s WALL (     773 calls)
     aceupdate    :      0.00s CPU      0.00s WALL (      64 calls)
     vexxace      :      0.05s CPU      0.05s WALL (     597 calls)
     aceinit      :    926.69s CPU   1029.23s WALL (      64 calls)

     PWSCF        :  15m32.78s CPU  17m16.84s WALL


   This run was terminated on:   3:56:56  23Jun2026            

=------------------------------------------------------------------------------=
   JOB DONE.
=------------------------------------------------------------------------------=
