
     Program PWSCF v.7.5 starts on 25Jun2026 at  8:26:41 

     This program is part of the open-source Quantum ESPRESSO suite
     for quantum simulation of materials; please cite
         "P. Giannozzi et al., J. Phys.:Condens. Matter 21 395502 (2009);
         "P. Giannozzi et al., J. Phys.:Condens. Matter 29 465901 (2017);
         "P. Giannozzi et al., J. Chem. Phys. 152 154105 (2020);
          URL http://www.quantum-espresso.org", 
     in publications or presentations arising from this work. More details at
     http://www.quantum-espresso.org/quote

     Parallel version (MPI & OpenMP), running on       4 processor cores
     Number of MPI processes:                 4
     Threads/MPI process:                     1

     MPI processes distributed on     1 nodes
     13719 MiB available memory on the printing compute node when the environment starts

     Reading input from caf2.fg.in

     Current dimensions of program PWSCF are:
     Max number of different atomic species (ntypx) = 10
     Max number of k-points (npk) =  40000
     Max angular momentum in pseudopotentials (lmaxx) =  4

     IMPORTANT: XC functional enforced from input :
     Exchange-correlation= HSE
                           (   1   4  12   4   0   0   0)
     EXX-fraction              =        0.25
     Any further DFT definition will be discarded
     Please, verify this is what you really want

     EXX Screening parameter changed:    0.7135000
     EXX fraction changed:   1.00
     DD-RSH-CAM (LMODELHF) semilocal: AEXX, BEXX =   0.4435  0.5666
     DD-RSH-CAM (LMODELHF) enabled
     AEXX =  0.4435   BEXX =  0.5666   mu(bohr^-1) =  0.7135

     R & G space division:  proc/nbgrp/npool/nimage =       4
     Subspace diagonalization in iterative solution of the eigenvalue problem:
     a serial algorithm will be used

     EXX: q-point mesh:     6    6    6
     EXX: setup a grid of 216 q-points centered on each k-point
     (k+q)-points:
   0.0000000   0.0000000   0.0000000         1    1
  -0.1666667   0.1666667  -0.1666667         2    1
  -0.3333333   0.3333333  -0.3333333         3    1
   0.5000000  -0.5000000   0.5000000         4    1
   0.3333333  -0.3333333   0.3333333         3   -1
   0.1666667  -0.1666667   0.1666667         2   -1
   0.1666667   0.1666667   0.1666667         2    3
   0.0000000   0.3333333   0.0000000         5    1
  -0.1666667   0.5000000  -0.1666667         6    1
   0.6666667  -0.3333333   0.6666667         7    1
   0.5000000  -0.1666667   0.5000000         8    1
   0.3333333   0.0000000   0.3333333         9    1
   0.3333333   0.3333333   0.3333333         3    3
   0.1666667   0.5000000   0.1666667         6    3
   0.0000000   0.6666667   0.0000000        10    1
   0.8333333  -0.1666667   0.8333333        11    1
   0.6666667   0.0000000   0.6666667        12    1
   0.5000000   0.1666667   0.5000000         8   -3
  -0.5000000  -0.5000000  -0.5000000         4    3
  -0.6666667  -0.3333333  -0.6666667         7    3
  -0.8333333  -0.1666667  -0.8333333        11    3
   0.0000000  -1.0000000   0.0000000        13    1
   0.8333333   0.1666667   0.8333333        11   -3
   0.6666667   0.3333333   0.6666667         7   -3
  -0.3333333  -0.3333333  -0.3333333         3   -3
  -0.5000000  -0.1666667  -0.5000000         8    3
  -0.6666667   0.0000000  -0.6666667        12   -1
  -0.8333333   0.1666667  -0.8333333        11   -1
   0.0000000  -0.6666667   0.0000000        10   -1
  -0.1666667  -0.5000000  -0.1666667         6   -3
  -0.1666667  -0.1666667  -0.1666667         2   -3
  -0.3333333   0.0000000  -0.3333333         9   -1
  -0.5000000   0.1666667  -0.5000000         8   -1
  -0.6666667   0.3333333  -0.6666667         7   -1
   0.1666667  -0.5000000   0.1666667         6   -1
   0.0000000  -0.3333333   0.0000000         5   -1
  -0.1666667  -0.1666667   0.1666667         2    4
  -0.3333333   0.0000000   0.0000000         5   -5
  -0.5000000   0.1666667  -0.1666667         6   -5
   0.3333333  -0.6666667   0.6666667         7   -5
   0.1666667  -0.5000000   0.5000000         8   -5
   0.0000000  -0.3333333   0.3333333         9   -5
   0.0000000   0.0000000   0.3333333         5   13
  -0.1666667   0.1666667   0.1666667         2   -2
  -0.3333333   0.3333333   0.0000000         9   13
  -0.5000000   0.5000000  -0.1666667         8   13
  -0.6666667   0.6666667  -0.3333333         7   13
   0.1666667  -0.1666667   0.5000000         6   13
   0.1666667   0.1666667   0.5000000         6  -16
   0.0000000   0.3333333   0.3333333         9   -6
  -0.1666667   0.5000000   0.1666667         6   -2
   0.6666667  -0.3333333   1.0000000        14    1
   0.5000000  -0.1666667   0.8333333        15    1
  -0.6666667   1.0000000  -0.3333333        14   13
  -0.6666667  -0.6666667  -0.3333333         7  -16
   0.1666667   0.5000000   0.5000000         8    7
  -1.0000000  -0.3333333  -0.6666667        14   -9
   0.8333333  -0.1666667  -0.8333333        11   -2
  -0.3333333  -1.0000000   0.0000000        16    1
   0.5000000   0.1666667   0.8333333        15   -3
  -0.5000000  -0.5000000  -0.1666667         8  -16
   0.3333333   0.6666667   0.6666667         7    7
  -0.8333333  -0.1666667  -0.5000000        15   -9
   0.0000000  -1.0000000   0.3333333        16   -9
   0.8333333   0.1666667  -0.8333333        11    4
   0.6666667   0.3333333   1.0000000        14   -3
  -0.3333333  -0.3333333   0.0000000         9   14
  -0.5000000  -0.1666667  -0.1666667         6    7
   0.3333333  -1.0000000   0.6666667        14   22
  -0.8333333   0.1666667  -0.5000000        15   10
  -1.0000000   0.3333333  -0.6666667        14   10
  -0.1666667  -0.5000000   0.1666667         6    4
  -0.3333333  -0.3333333   0.3333333         3    4
  -0.5000000  -0.1666667   0.1666667         6   -8
  -0.6666667   0.0000000   0.0000000        10   -5
   0.1666667  -0.8333333   0.8333333        11   -5
   0.0000000  -0.6666667   0.6666667        12   -5
  -0.1666667  -0.5000000   0.5000000         8    8
  -0.1666667  -0.1666667   0.5000000         6  -14
  -0.3333333   0.0000000   0.3333333         9    2
  -0.5000000   0.1666667   0.1666667         6    6
   0.3333333  -0.6666667   1.0000000        14   -5
   0.1666667  -0.5000000   0.8333333        15   -5
   1.0000000   0.6666667  -0.3333333        14   17
   0.0000000   0.0000000   0.6666667        10   13
  -0.1666667   0.1666667   0.5000000         6   15
  -0.3333333   0.3333333   0.3333333         3   -2
  -0.5000000   0.5000000   0.1666667         8  -15
  -0.6666667   0.6666667   0.0000000        12   13
  -0.8333333   0.8333333  -0.1666667        11   13
  -0.8333333  -0.8333333  -0.1666667        11  -16
  -1.0000000  -0.6666667  -0.3333333        14   18
  -0.1666667   0.5000000   0.5000000         8   -6
   0.6666667  -0.3333333  -0.6666667         7   -2
   0.5000000  -0.1666667  -0.8333333        15   -2
   0.3333333   0.0000000  -1.0000000        16   13
  -0.6666667  -0.6666667   0.0000000        12   14
   0.1666667   0.5000000   0.8333333        15    7
   0.0000000   0.6666667   0.6666667        12   -6
   0.8333333  -0.1666667  -0.5000000        15   12
   0.6666667   0.0000000  -0.6666667        12   -2
   0.5000000   0.1666667  -0.8333333        15    4
  -0.5000000  -0.5000000   0.1666667         8   14
   0.3333333   0.6666667   1.0000000        14    7
   0.1666667   0.8333333   0.8333333        11    7
  -1.0000000   0.0000000  -0.3333333        16   21
   0.8333333   0.1666667  -0.5000000        15  -11
   0.6666667   0.3333333  -0.6666667         7    4
   0.5000000   0.5000000  -0.5000000         4    4
   0.3333333   0.6666667  -0.6666667         7   -8
   0.1666667   0.8333333  -0.8333333        11   -8
  -1.0000000   0.0000000   0.0000000        13    5
  -0.1666667  -0.8333333   0.8333333        11    8
  -0.3333333  -0.6666667   0.6666667         7    8
   0.6666667   0.6666667  -0.3333333         7  -14
  -0.5000000  -0.1666667   0.5000000         8   -4
   0.3333333  -1.0000000  -0.6666667        14  -21
   0.1666667  -0.8333333  -0.8333333        11    6
   1.0000000   0.3333333   0.0000000        16   -5
  -0.1666667  -0.5000000   0.8333333        15    8
   0.8333333   0.8333333  -0.1666667        11  -14
   0.6666667   1.0000000  -0.3333333        14  -14
  -0.5000000   0.1666667   0.5000000         8    2
   0.3333333  -0.6666667  -0.6666667         7    6
   0.1666667  -0.5000000  -0.8333333        15    6
   0.0000000  -0.3333333  -1.0000000        16   17
   0.0000000   0.0000000  -1.0000000        13   13
   0.8333333  -0.8333333  -0.1666667        11   15
   0.6666667  -0.6666667  -0.3333333         7   15
  -0.5000000   0.5000000   0.5000000         4    2
  -0.6666667   0.6666667   0.3333333         7  -15
  -0.8333333   0.8333333   0.1666667        11  -15
  -0.8333333  -0.8333333   0.1666667        11   14
   0.0000000   0.3333333   1.0000000        16  -17
  -0.1666667   0.5000000   0.8333333        15   -6
  -0.3333333   0.6666667   0.6666667         7   -6
   0.5000000  -0.1666667  -0.5000000         8   -2
  -0.6666667  -1.0000000   0.3333333        14   14
  -0.6666667  -0.6666667   0.3333333         7   14
   0.1666667   0.5000000  -0.8333333        15   -8
  -1.0000000  -0.3333333   0.0000000        16    5
  -0.1666667   0.8333333   0.8333333        11   -6
  -0.3333333   1.0000000   0.6666667        14   21
   0.5000000   0.1666667  -0.5000000         8    4
   0.3333333   0.3333333  -0.3333333         3   -4
   0.1666667   0.5000000  -0.5000000         8   -8
   0.0000000   0.6666667  -0.6666667        12    5
  -0.1666667   0.8333333  -0.8333333        11    5
   0.6666667   0.0000000   0.0000000        10    5
   0.5000000   0.1666667  -0.1666667         6    8
   0.5000000   0.5000000  -0.1666667         8  -14
  -0.6666667  -0.3333333   0.6666667         7   -4
  -0.8333333  -0.1666667   0.5000000        15   11
   1.0000000   0.0000000   0.3333333        16  -21
  -0.1666667  -0.8333333  -0.8333333        11   -7
  -0.3333333  -0.6666667  -1.0000000        14   -7
   0.6666667   0.6666667   0.0000000        12  -14
  -0.5000000  -0.1666667   0.8333333        15   -4
  -0.6666667   0.0000000   0.6666667        12    2
  -0.8333333   0.1666667   0.5000000        15  -12
   0.0000000  -0.6666667  -0.6666667        12    6
  -0.1666667  -0.5000000  -0.8333333        15   -7
   0.8333333   0.8333333   0.1666667        11   16
  -0.3333333   0.0000000   1.0000000        16  -13
  -0.5000000   0.1666667   0.8333333        15    2
  -0.6666667   0.3333333   0.6666667         7    2
   0.1666667  -0.5000000  -0.5000000         8    6
   1.0000000   0.6666667   0.3333333        14  -18
   0.0000000   0.0000000  -0.6666667        10  -13
   0.8333333  -0.8333333   0.1666667        11  -13
   0.6666667  -0.6666667   0.0000000        12  -13
   0.5000000  -0.5000000  -0.1666667         8   15
   0.3333333  -0.3333333  -0.3333333         3    2
   0.1666667  -0.1666667  -0.5000000         6  -15
   0.1666667   0.1666667  -0.5000000         6   14
  -1.0000000  -0.6666667   0.3333333        14  -17
  -0.1666667   0.5000000  -0.8333333        15    5
  -0.3333333   0.6666667  -1.0000000        14    5
   0.5000000  -0.1666667  -0.1666667         6   -6
   0.3333333   0.0000000  -0.3333333         9   -2
   0.1666667   0.1666667  -0.1666667         2   -4
   0.0000000   0.3333333  -0.3333333         9    5
  -0.1666667   0.5000000  -0.5000000         8    5
  -0.3333333   0.6666667  -0.6666667         7    5
   0.5000000  -0.1666667   0.1666667         6    5
   0.3333333   0.0000000   0.0000000         5    5
   0.3333333   0.3333333   0.0000000         9  -14
   0.1666667   0.5000000  -0.1666667         6   -4
   1.0000000  -0.3333333   0.6666667        14  -10
   0.8333333  -0.1666667   0.5000000        15  -10
  -0.3333333   1.0000000  -0.6666667        14  -22
   0.5000000   0.1666667   0.1666667         6   -7
   0.5000000   0.5000000   0.1666667         8   16
  -0.6666667  -0.3333333  -1.0000000        14    3
  -0.8333333  -0.1666667   0.8333333        11   -4
   0.0000000   1.0000000  -0.3333333        16    9
   0.8333333   0.1666667   0.5000000        15    9
  -0.3333333  -0.6666667  -0.6666667         7   -7
   0.6666667   0.6666667   0.3333333         7   16
  -0.5000000  -0.1666667  -0.8333333        15    3
   0.3333333   1.0000000   0.0000000        16   -1
  -0.8333333   0.1666667   0.8333333        11    2
   1.0000000   0.3333333   0.6666667        14    9
  -0.1666667  -0.5000000  -0.5000000         8   -7
  -0.1666667  -0.1666667  -0.5000000         6   16
   0.6666667  -1.0000000   0.3333333        14  -13
  -0.5000000   0.1666667  -0.8333333        15   -1
  -0.6666667   0.3333333  -1.0000000        14   -1
   0.1666667  -0.5000000  -0.1666667         6    2
   0.0000000  -0.3333333  -0.3333333         9    6
   0.0000000   0.0000000  -0.3333333         5  -13
  -0.1666667   0.1666667  -0.5000000         6  -13
   0.6666667  -0.6666667   0.3333333         7  -13
   0.5000000  -0.5000000   0.1666667         8  -13
   0.3333333  -0.3333333   0.0000000         9  -13
   0.1666667  -0.1666667  -0.1666667         2    2

     Parallelization info
     --------------------
     sticks:   dense  smooth     PW     G-vecs:    dense   smooth      PW
     Min         289     289     87                 6614     6614    1068
     Max         290     290     88                 6619     6619    1071
     Sum        1159    1159    349                26469    26469    4279

     Using Slab Decomposition



     bravais-lattice index     =            2
     lattice parameter (alat)  =      10.3230  a.u.
     unit-cell volume          =     275.0159 (a.u.)^3
     number of atoms/cell      =            3
     number of atomic types    =            2
     number of electrons       =        24.00
     number of Kohn-Sham states=           20
     kinetic-energy cutoff     =      80.0000  Ry
     charge density cutoff     =     320.0000  Ry
     cutoff for Fock operator  =     320.0000  Ry
     scf convergence threshold =      1.0E-08
     mixing beta               =       0.7000
     number of iterations used =            8  plain     mixing
     Exchange-correlation= HSE
                           (   1   4  12   4   0   0   0)
     EXX-fraction              =        1.00

     celldm(1)=  10.323000  celldm(2)=   0.000000  celldm(3)=   0.000000
     celldm(4)=   0.000000  celldm(5)=   0.000000  celldm(6)=   0.000000

     crystal axes: (cart. coord. in units of alat)
               a(1) = (  -0.500000   0.000000   0.500000 )  
               a(2) = (   0.000000   0.500000   0.500000 )  
               a(3) = (  -0.500000   0.500000   0.000000 )  

     reciprocal axes: (cart. coord. in units 2 pi/alat)
               b(1) = ( -1.000000 -1.000000  1.000000 )  
               b(2) = (  1.000000  1.000000  1.000000 )  
               b(3) = ( -1.000000  1.000000 -1.000000 )  


     PseudoPot. # 1 for Ca read from file:
     ../../../../pseudos/Ca_ONCV_PBE-1.2.upf
     MD5 check sum: b43c970dc090f2312d256360aabdb6f1
     Pseudo is Norm-conserving, Zval = 10.0
     Generated using ONCVPSP code by D. R. Hamann
     Using radial grid of  602 points,  6 beta functions with: 
                l(1) =   0
                l(2) =   0
                l(3) =   1
                l(4) =   1
                l(5) =   2
                l(6) =   2

     PseudoPot. # 2 for F  read from file:
     ../../../../pseudos/F_ONCV_PBE-1.2.upf
     MD5 check sum: 1d8275f47d602dd53cad6bcdc0eda7dc
     Pseudo is Norm-conserving, Zval =  7.0
     Generated using ONCVPSP code by D. R. Hamann
     Using radial grid of  602 points,  4 beta functions with: 
                l(1) =   0
                l(2) =   0
                l(3) =   1
                l(4) =   1

     atomic species   valence    mass     pseudopotential
     Ca               10.00    40.07800     Ca( 1.00)
     F                 7.00    18.99800     F ( 1.00)

     48 Sym. Ops., with inversion, found


                                    s                        frac. trans.

      isym =  1     identity                                     

 cryst.   s( 1) = (     1          0          0      )
                  (     0          1          0      )
                  (     0          0          1      )

 cart.    s( 1) = (  1.0000000  0.0000000  0.0000000 )
                  (  0.0000000  1.0000000  0.0000000 )
                  (  0.0000000  0.0000000  1.0000000 )


      isym =  2     180 deg rotation - cart. axis [0,0,1]        

 cryst.   s( 2) = (     0          1         -1      )
                  (     1          0         -1      )
                  (     0          0         -1      )

 cart.    s( 2) = ( -1.0000000  0.0000000  0.0000000 )
                  (  0.0000000 -1.0000000  0.0000000 )
                  (  0.0000000  0.0000000  1.0000000 )


      isym =  3     180 deg rotation - cart. axis [0,1,0]        

 cryst.   s( 3) = (    -1          0          0      )
                  (    -1          0          1      )
                  (    -1          1          0      )

 cart.    s( 3) = ( -1.0000000  0.0000000  0.0000000 )
                  (  0.0000000  1.0000000  0.0000000 )
                  (  0.0000000  0.0000000 -1.0000000 )


      isym =  4     180 deg rotation - cart. axis [1,0,0]        

 cryst.   s( 4) = (     0         -1          1      )
                  (     0         -1          0      )
                  (     1         -1          0      )

 cart.    s( 4) = (  1.0000000  0.0000000  0.0000000 )
                  (  0.0000000 -1.0000000  0.0000000 )
                  (  0.0000000  0.0000000 -1.0000000 )


      isym =  5     180 deg rotation - cart. axis [1,1,0]        

 cryst.   s( 5) = (     0         -1          0      )
                  (    -1          0          0      )
                  (     0          0         -1      )

 cart.    s( 5) = (  0.0000000  1.0000000  0.0000000 )
                  (  1.0000000  0.0000000  0.0000000 )
                  (  0.0000000  0.0000000 -1.0000000 )


      isym =  6     180 deg rotation - cart. axis [1,-1,0]       

 cryst.   s( 6) = (    -1          0          1      )
                  (     0         -1          1      )
                  (     0          0          1      )

 cart.    s( 6) = (  0.0000000 -1.0000000  0.0000000 )
                  ( -1.0000000  0.0000000  0.0000000 )
                  (  0.0000000  0.0000000 -1.0000000 )


      isym =  7      90 deg rotation - cart. axis [0,0,-1]       

 cryst.   s( 7) = (     0          1          0      )
                  (     0          1         -1      )
                  (    -1          1          0      )

 cart.    s( 7) = (  0.0000000  1.0000000  0.0000000 )
                  ( -1.0000000  0.0000000  0.0000000 )
                  (  0.0000000  0.0000000  1.0000000 )


      isym =  8      90 deg rotation - cart. axis [0,0,1]        

 cryst.   s( 8) = (     1          0         -1      )
                  (     1          0          0      )
                  (     1         -1          0      )

 cart.    s( 8) = (  0.0000000 -1.0000000  0.0000000 )
                  (  1.0000000  0.0000000  0.0000000 )
                  (  0.0000000  0.0000000  1.0000000 )


      isym =  9     180 deg rotation - cart. axis [1,0,1]        

 cryst.   s( 9) = (    -1          0          0      )
                  (     0          0         -1      )
                  (     0         -1          0      )

 cart.    s( 9) = (  0.0000000  0.0000000  1.0000000 )
                  (  0.0000000 -1.0000000  0.0000000 )
                  (  1.0000000  0.0000000  0.0000000 )


      isym = 10     180 deg rotation - cart. axis [-1,0,1]       

 cryst.   s(10) = (     1          0          0      )
                  (     1         -1          0      )
                  (     1          0         -1      )

 cart.    s(10) = (  0.0000000  0.0000000 -1.0000000 )
                  (  0.0000000 -1.0000000  0.0000000 )
                  ( -1.0000000  0.0000000  0.0000000 )


      isym = 11      90 deg rotation - cart. axis [0,1,0]        

 cryst.   s(11) = (     0          1         -1      )
                  (    -1          1          0      )
                  (     0          1          0      )

 cart.    s(11) = (  0.0000000  0.0000000  1.0000000 )
                  (  0.0000000  1.0000000  0.0000000 )
                  ( -1.0000000  0.0000000  0.0000000 )


      isym = 12      90 deg rotation - cart. axis [0,-1,0]       

 cryst.   s(12) = (     0         -1          1      )
                  (     0          0          1      )
                  (    -1          0          1      )

 cart.    s(12) = (  0.0000000  0.0000000 -1.0000000 )
                  (  0.0000000  1.0000000  0.0000000 )
                  (  1.0000000  0.0000000  0.0000000 )


      isym = 13     180 deg rotation - cart. axis [0,1,1]        

 cryst.   s(13) = (    -1          1          0      )
                  (     0          1          0      )
                  (     0          1         -1      )

 cart.    s(13) = ( -1.0000000  0.0000000  0.0000000 )
                  (  0.0000000  0.0000000  1.0000000 )
                  (  0.0000000  1.0000000  0.0000000 )


      isym = 14     180 deg rotation - cart. axis [0,1,-1]       

 cryst.   s(14) = (     0          0         -1      )
                  (     0         -1          0      )
                  (    -1          0          0      )

 cart.    s(14) = ( -1.0000000  0.0000000  0.0000000 )
                  (  0.0000000  0.0000000 -1.0000000 )
                  (  0.0000000 -1.0000000  0.0000000 )


      isym = 15      90 deg rotation - cart. axis [-1,0,0]       

 cryst.   s(15) = (     0          0          1      )
                  (    -1          0          1      )
                  (     0         -1          1      )

 cart.    s(15) = (  1.0000000  0.0000000  0.0000000 )
                  (  0.0000000  0.0000000  1.0000000 )
                  (  0.0000000 -1.0000000  0.0000000 )


      isym = 16      90 deg rotation - cart. axis [1,0,0]        

 cryst.   s(16) = (     1         -1          0      )
                  (     1          0         -1      )
                  (     1          0          0      )

 cart.    s(16) = (  1.0000000  0.0000000  0.0000000 )
                  (  0.0000000  0.0000000 -1.0000000 )
                  (  0.0000000  1.0000000  0.0000000 )


      isym = 17     120 deg rotation - cart. axis [-1,-1,-1]     

 cryst.   s(17) = (    -1          0          1      )
                  (    -1          1          0      )
                  (    -1          0          0      )

 cart.    s(17) = (  0.0000000  1.0000000  0.0000000 )
                  (  0.0000000  0.0000000  1.0000000 )
                  (  1.0000000  0.0000000  0.0000000 )


      isym = 18     120 deg rotation - cart. axis [-1,1,1]       

 cryst.   s(18) = (     0          1          0      )
                  (     0          0          1      )
                  (     1          0          0      )

 cart.    s(18) = (  0.0000000 -1.0000000  0.0000000 )
                  (  0.0000000  0.0000000  1.0000000 )
                  ( -1.0000000  0.0000000  0.0000000 )


      isym = 19     120 deg rotation - cart. axis [1,1,-1]       

 cryst.   s(19) = (     1          0         -1      )
                  (     0          0         -1      )
                  (     0          1         -1      )

 cart.    s(19) = (  0.0000000  1.0000000  0.0000000 )
                  (  0.0000000  0.0000000 -1.0000000 )
                  ( -1.0000000  0.0000000  0.0000000 )


      isym = 20     120 deg rotation - cart. axis [1,-1,1]       

 cryst.   s(20) = (     0         -1          0      )
                  (     1         -1          0      )
                  (     0         -1          1      )

 cart.    s(20) = (  0.0000000 -1.0000000  0.0000000 )
                  (  0.0000000  0.0000000 -1.0000000 )
                  (  1.0000000  0.0000000  0.0000000 )


      isym = 21     120 deg rotation - cart. axis [1,1,1]        

 cryst.   s(21) = (     0          0         -1      )
                  (     0          1         -1      )
                  (     1          0         -1      )

 cart.    s(21) = (  0.0000000  0.0000000  1.0000000 )
                  (  1.0000000  0.0000000  0.0000000 )
                  (  0.0000000  1.0000000  0.0000000 )


      isym = 22     120 deg rotation - cart. axis [-1,1,-1]      

 cryst.   s(22) = (    -1          1          0      )
                  (    -1          0          0      )
                  (    -1          0          1      )

 cart.    s(22) = (  0.0000000  0.0000000  1.0000000 )
                  ( -1.0000000  0.0000000  0.0000000 )
                  (  0.0000000 -1.0000000  0.0000000 )


      isym = 23     120 deg rotation - cart. axis [1,-1,-1]      

 cryst.   s(23) = (     0          0          1      )
                  (     1          0          0      )
                  (     0          1          0      )

 cart.    s(23) = (  0.0000000  0.0000000 -1.0000000 )
                  ( -1.0000000  0.0000000  0.0000000 )
                  (  0.0000000  1.0000000  0.0000000 )


      isym = 24     120 deg rotation - cart. axis [-1,-1,1]      

 cryst.   s(24) = (     1         -1          0      )
                  (     0         -1          1      )
                  (     0         -1          0      )

 cart.    s(24) = (  0.0000000  0.0000000 -1.0000000 )
                  (  1.0000000  0.0000000  0.0000000 )
                  (  0.0000000 -1.0000000  0.0000000 )


      isym = 25     inversion                                    

 cryst.   s(25) = (    -1          0          0      )
                  (     0         -1          0      )
                  (     0          0         -1      )

 cart.    s(25) = ( -1.0000000  0.0000000  0.0000000 )
                  (  0.0000000 -1.0000000  0.0000000 )
                  (  0.0000000  0.0000000 -1.0000000 )


      isym = 26     inv. 180 deg rotation - cart. axis [0,0,1]   

 cryst.   s(26) = (     0         -1          1      )
                  (    -1          0          1      )
                  (     0          0          1      )

 cart.    s(26) = (  1.0000000  0.0000000  0.0000000 )
                  (  0.0000000  1.0000000  0.0000000 )
                  (  0.0000000  0.0000000 -1.0000000 )


      isym = 27     inv. 180 deg rotation - cart. axis [0,1,0]   

 cryst.   s(27) = (     1          0          0      )
                  (     1          0         -1      )
                  (     1         -1          0      )

 cart.    s(27) = (  1.0000000  0.0000000  0.0000000 )
                  (  0.0000000 -1.0000000  0.0000000 )
                  (  0.0000000  0.0000000  1.0000000 )


      isym = 28     inv. 180 deg rotation - cart. axis [1,0,0]   

 cryst.   s(28) = (     0          1         -1      )
                  (     0          1          0      )
                  (    -1          1          0      )

 cart.    s(28) = ( -1.0000000  0.0000000  0.0000000 )
                  (  0.0000000  1.0000000  0.0000000 )
                  (  0.0000000  0.0000000  1.0000000 )


      isym = 29     inv. 180 deg rotation - cart. axis [1,1,0]   

 cryst.   s(29) = (     0          1          0      )
                  (     1          0          0      )
                  (     0          0          1      )

 cart.    s(29) = (  0.0000000 -1.0000000  0.0000000 )
                  ( -1.0000000  0.0000000  0.0000000 )
                  (  0.0000000  0.0000000  1.0000000 )


      isym = 30     inv. 180 deg rotation - cart. axis [1,-1,0]  

 cryst.   s(30) = (     1          0         -1      )
                  (     0          1         -1      )
                  (     0          0         -1      )

 cart.    s(30) = (  0.0000000  1.0000000  0.0000000 )
                  (  1.0000000  0.0000000  0.0000000 )
                  (  0.0000000  0.0000000  1.0000000 )


      isym = 31     inv.  90 deg rotation - cart. axis [0,0,-1]  

 cryst.   s(31) = (     0         -1          0      )
                  (     0         -1          1      )
                  (     1         -1          0      )

 cart.    s(31) = (  0.0000000 -1.0000000  0.0000000 )
                  (  1.0000000  0.0000000  0.0000000 )
                  (  0.0000000  0.0000000 -1.0000000 )


      isym = 32     inv.  90 deg rotation - cart. axis [0,0,1]   

 cryst.   s(32) = (    -1          0          1      )
                  (    -1          0          0      )
                  (    -1          1          0      )

 cart.    s(32) = (  0.0000000  1.0000000  0.0000000 )
                  ( -1.0000000  0.0000000  0.0000000 )
                  (  0.0000000  0.0000000 -1.0000000 )


      isym = 33     inv. 180 deg rotation - cart. axis [1,0,1]   

 cryst.   s(33) = (     1          0          0      )
                  (     0          0          1      )
                  (     0          1          0      )

 cart.    s(33) = (  0.0000000  0.0000000 -1.0000000 )
                  (  0.0000000  1.0000000  0.0000000 )
                  ( -1.0000000  0.0000000  0.0000000 )


      isym = 34     inv. 180 deg rotation - cart. axis [-1,0,1]  

 cryst.   s(34) = (    -1          0          0      )
                  (    -1          1          0      )
                  (    -1          0          1      )

 cart.    s(34) = (  0.0000000  0.0000000  1.0000000 )
                  (  0.0000000  1.0000000  0.0000000 )
                  (  1.0000000  0.0000000  0.0000000 )


      isym = 35     inv.  90 deg rotation - cart. axis [0,1,0]   

 cryst.   s(35) = (     0         -1          1      )
                  (     1         -1          0      )
                  (     0         -1          0      )

 cart.    s(35) = (  0.0000000  0.0000000 -1.0000000 )
                  (  0.0000000 -1.0000000  0.0000000 )
                  (  1.0000000  0.0000000  0.0000000 )


      isym = 36     inv.  90 deg rotation - cart. axis [0,-1,0]  

 cryst.   s(36) = (     0          1         -1      )
                  (     0          0         -1      )
                  (     1          0         -1      )

 cart.    s(36) = (  0.0000000  0.0000000  1.0000000 )
                  (  0.0000000 -1.0000000  0.0000000 )
                  ( -1.0000000  0.0000000  0.0000000 )


      isym = 37     inv. 180 deg rotation - cart. axis [0,1,1]   

 cryst.   s(37) = (     1         -1          0      )
                  (     0         -1          0      )
                  (     0         -1          1      )

 cart.    s(37) = (  1.0000000  0.0000000  0.0000000 )
                  (  0.0000000  0.0000000 -1.0000000 )
                  (  0.0000000 -1.0000000  0.0000000 )


      isym = 38     inv. 180 deg rotation - cart. axis [0,1,-1]  

 cryst.   s(38) = (     0          0          1      )
                  (     0          1          0      )
                  (     1          0          0      )

 cart.    s(38) = (  1.0000000  0.0000000  0.0000000 )
                  (  0.0000000  0.0000000  1.0000000 )
                  (  0.0000000  1.0000000  0.0000000 )


      isym = 39     inv.  90 deg rotation - cart. axis [-1,0,0]  

 cryst.   s(39) = (     0          0         -1      )
                  (     1          0         -1      )
                  (     0          1         -1      )

 cart.    s(39) = ( -1.0000000  0.0000000  0.0000000 )
                  (  0.0000000  0.0000000 -1.0000000 )
                  (  0.0000000  1.0000000  0.0000000 )


      isym = 40     inv.  90 deg rotation - cart. axis [1,0,0]   

 cryst.   s(40) = (    -1          1          0      )
                  (    -1          0          1      )
                  (    -1          0          0      )

 cart.    s(40) = ( -1.0000000  0.0000000  0.0000000 )
                  (  0.0000000  0.0000000  1.0000000 )
                  (  0.0000000 -1.0000000  0.0000000 )


      isym = 41     inv. 120 deg rotation - cart. axis [-1,-1,-1]

 cryst.   s(41) = (     1          0         -1      )
                  (     1         -1          0      )
                  (     1          0          0      )

 cart.    s(41) = (  0.0000000 -1.0000000  0.0000000 )
                  (  0.0000000  0.0000000 -1.0000000 )
                  ( -1.0000000  0.0000000  0.0000000 )


      isym = 42     inv. 120 deg rotation - cart. axis [-1,1,1]  

 cryst.   s(42) = (     0         -1          0      )
                  (     0          0         -1      )
                  (    -1          0          0      )

 cart.    s(42) = (  0.0000000  1.0000000  0.0000000 )
                  (  0.0000000  0.0000000 -1.0000000 )
                  (  1.0000000  0.0000000  0.0000000 )


      isym = 43     inv. 120 deg rotation - cart. axis [1,1,-1]  

 cryst.   s(43) = (    -1          0          1      )
                  (     0          0          1      )
                  (     0         -1          1      )

 cart.    s(43) = (  0.0000000 -1.0000000  0.0000000 )
                  (  0.0000000  0.0000000  1.0000000 )
                  (  1.0000000  0.0000000  0.0000000 )


      isym = 44     inv. 120 deg rotation - cart. axis [1,-1,1]  

 cryst.   s(44) = (     0          1          0      )
                  (    -1          1          0      )
                  (     0          1         -1      )

 cart.    s(44) = (  0.0000000  1.0000000  0.0000000 )
                  (  0.0000000  0.0000000  1.0000000 )
                  ( -1.0000000  0.0000000  0.0000000 )


      isym = 45     inv. 120 deg rotation - cart. axis [1,1,1]   

 cryst.   s(45) = (     0          0          1      )
                  (     0         -1          1      )
                  (    -1          0          1      )

 cart.    s(45) = (  0.0000000  0.0000000 -1.0000000 )
                  ( -1.0000000  0.0000000  0.0000000 )
                  (  0.0000000 -1.0000000  0.0000000 )


      isym = 46     inv. 120 deg rotation - cart. axis [-1,1,-1] 

 cryst.   s(46) = (     1         -1          0      )
                  (     1          0          0      )
                  (     1          0         -1      )

 cart.    s(46) = (  0.0000000  0.0000000 -1.0000000 )
                  (  1.0000000  0.0000000  0.0000000 )
                  (  0.0000000  1.0000000  0.0000000 )


      isym = 47     inv. 120 deg rotation - cart. axis [1,-1,-1] 

 cryst.   s(47) = (     0          0         -1      )
                  (    -1          0          0      )
                  (     0         -1          0      )

 cart.    s(47) = (  0.0000000  0.0000000  1.0000000 )
                  (  1.0000000  0.0000000  0.0000000 )
                  (  0.0000000 -1.0000000  0.0000000 )


      isym = 48     inv. 120 deg rotation - cart. axis [-1,-1,1] 

 cryst.   s(48) = (    -1          1          0      )
                  (     0          1         -1      )
                  (     0          1          0      )

 cart.    s(48) = (  0.0000000  0.0000000  1.0000000 )
                  ( -1.0000000  0.0000000  0.0000000 )
                  (  0.0000000  1.0000000  0.0000000 )


     point group O_h (m-3m) 
     there are 10 classes
     the character table:

       E     8C3   3C2   6C4   6C2'  i     8S6   3s_h  6S4   6s_d 
A_1g   1.00  1.00  1.00  1.00  1.00  1.00  1.00  1.00  1.00  1.00
A_2g   1.00  1.00  1.00 -1.00 -1.00  1.00  1.00  1.00 -1.00 -1.00
E_g    2.00 -1.00  2.00  0.00  0.00  2.00 -1.00  2.00  0.00  0.00
T_1g   3.00  0.00 -1.00  1.00 -1.00  3.00  0.00 -1.00  1.00 -1.00
T_2g   3.00  0.00 -1.00 -1.00  1.00  3.00  0.00 -1.00 -1.00  1.00
A_1u   1.00  1.00  1.00  1.00  1.00 -1.00 -1.00 -1.00 -1.00 -1.00
A_2u   1.00  1.00  1.00 -1.00 -1.00 -1.00 -1.00 -1.00  1.00  1.00
E_u    2.00 -1.00  2.00  0.00  0.00 -2.00  1.00 -2.00  0.00  0.00
T_1u   3.00  0.00 -1.00  1.00 -1.00 -3.00  0.00  1.00 -1.00  1.00
T_2u   3.00  0.00 -1.00 -1.00  1.00 -3.00  0.00  1.00  1.00 -1.00

     the symmetry operations in each class and the name of the first element:

     E        1
          identity                                               
     8C3     17   19   20   18   24   21   22   23
          120 deg rotation - cart. axis [-1,-1,-1]               
     3C2      2    4    3
          180 deg rotation - cart. axis [0,0,1]                  
     6C4      7    8   15   16   12   11
           90 deg rotation - cart. axis [0,0,-1]                 
     6C2'     5    6   14   13   10    9
          180 deg rotation - cart. axis [1,1,0]                  
     i       25
          inversion                                              
     8S6     41   43   44   42   48   45   46   47
          inv. 120 deg rotation - cart. axis [-1,-1,-1]          
     3s_h    26   28   27
          inv. 180 deg rotation - cart. axis [0,0,1]             
     6S4     31   32   39   40   36   35
          inv.  90 deg rotation - cart. axis [0,0,-1]            
     6s_d    29   30   38   37   34   33
          inv. 180 deg rotation - cart. axis [1,1,0]             

   Cartesian axes

     site n.     atom                  positions (alat units)
         1        Ca     tau(   1) = (   0.0000000   0.0000000   0.0000000  )
         2        F      tau(   2) = (  -0.2500000   0.2500000   0.2500000  )
         3        F      tau(   3) = (  -0.7500000   0.7500000   0.7500000  )

   Crystallographic axes

     site n.     atom                  positions (cryst. coord.)
         1        Ca     tau(   1) = (  0.0000000  0.0000000  0.0000000  )
         2        F      tau(   2) = (  0.2500000  0.2500000  0.2500000  )
         3        F      tau(   3) = (  0.7500000  0.7500000  0.7500000  )

     number of k points=    16
                       cart. coord. in units 2pi/alat
        k(    1) = (   0.0000000   0.0000000   0.0000000), wk =   0.0092593
        k(    2) = (  -0.1666667   0.1666667  -0.1666667), wk =   0.0740741
        k(    3) = (  -0.3333333   0.3333333  -0.3333333), wk =   0.0740741
        k(    4) = (   0.5000000  -0.5000000   0.5000000), wk =   0.0370370
        k(    5) = (   0.0000000   0.3333333   0.0000000), wk =   0.0555556
        k(    6) = (  -0.1666667   0.5000000  -0.1666667), wk =   0.2222222
        k(    7) = (   0.6666667  -0.3333333   0.6666667), wk =   0.2222222
        k(    8) = (   0.5000000  -0.1666667   0.5000000), wk =   0.2222222
        k(    9) = (   0.3333333   0.0000000   0.3333333), wk =   0.1111111
        k(   10) = (   0.0000000   0.6666667   0.0000000), wk =   0.0555556
        k(   11) = (   0.8333333  -0.1666667   0.8333333), wk =   0.2222222
        k(   12) = (   0.6666667  -0.0000000   0.6666667), wk =   0.1111111
        k(   13) = (   0.0000000  -1.0000000   0.0000000), wk =   0.0277778
        k(   14) = (   0.6666667  -0.3333333   1.0000000), wk =   0.2222222
        k(   15) = (   0.5000000  -0.1666667   0.8333333), wk =   0.2222222
        k(   16) = (  -0.3333333  -1.0000000   0.0000000), wk =   0.1111111

                       cryst. coord.
        k(    1) = (   0.0000000   0.0000000   0.0000000), wk =   0.0092593
        k(    2) = (   0.0000000   0.0000000   0.1666667), wk =   0.0740741
        k(    3) = (   0.0000000   0.0000000   0.3333333), wk =   0.0740741
        k(    4) = (   0.0000000   0.0000000  -0.5000000), wk =   0.0370370
        k(    5) = (   0.0000000   0.1666667   0.1666667), wk =   0.0555556
        k(    6) = (   0.0000000   0.1666667   0.3333333), wk =   0.2222222
        k(    7) = (   0.0000000   0.1666667  -0.5000000), wk =   0.2222222
        k(    8) = (   0.0000000   0.1666667  -0.3333333), wk =   0.2222222
        k(    9) = (   0.0000000   0.1666667  -0.1666667), wk =   0.1111111
        k(   10) = (   0.0000000   0.3333333   0.3333333), wk =   0.0555556
        k(   11) = (   0.0000000   0.3333333  -0.5000000), wk =   0.2222222
        k(   12) = (   0.0000000   0.3333333  -0.3333333), wk =   0.1111111
        k(   13) = (   0.0000000  -0.5000000  -0.5000000), wk =   0.0277778
        k(   14) = (   0.1666667   0.3333333  -0.5000000), wk =   0.2222222
        k(   15) = (   0.1666667   0.3333333  -0.3333333), wk =   0.2222222
        k(   16) = (   0.1666667  -0.5000000  -0.3333333), wk =   0.1111111

     Dense  grid:    26469 G-vectors     FFT dimensions: (  45,  45,  45)

     Dynamical RAM for                 wfc:       0.25 MB

     Dynamical RAM for     wfc (w. buffer):       4.31 MB

     Dynamical RAM for                 EXX:     882.26 MB

     Dynamical RAM for           str. fact:       0.20 MB

     Dynamical RAM for           local pot:       0.00 MB

     Dynamical RAM for          nlocal pot:       0.43 MB

     Dynamical RAM for                qrad:       3.11 MB

     Dynamical RAM for          rho,v,vnew:       0.86 MB

     Dynamical RAM for               rhoin:       0.29 MB

     Dynamical RAM for            rho*nmix:       1.62 MB

     Dynamical RAM for           G-vectors:       0.43 MB

     Dynamical RAM for          h,s,v(r/c):       0.07 MB

     Dynamical RAM for          <psi|beta>:       0.01 MB

     Dynamical RAM for                 psi:       0.51 MB

     Dynamical RAM for                hpsi:       0.51 MB

     Dynamical RAM for      wfcinit/wfcrot:       0.52 MB

     Estimated static dynamical RAM per process >     893.12 MB

     Estimated max dynamical RAM per process >     895.83 MB

     Estimated total dynamical RAM >       3.50 GB
     EXX: ACE will be initialized later

     Initial potential from superposition of free atoms

     starting charge      23.7954, renormalised to      24.0000
     Starting wfcs are random

     total cpu time spent up to now is        0.2 secs

     Self-consistent Calculation

     iteration #  1     ecut=    80.00 Ry     beta= 0.70
     Davidson diagonalization with overlap

---- Real-time Memory Report at c_bands before calling an iterative solver
            72 MiB given to the printing process from OS
             0 MiB allocation reported by mallinfo(arena+hblkhd)
         13667 MiB available memory on the node where the printing process lives
------------------
     ethr =  1.00E-02,  avg # of iterations =  9.5

     Threshold (ethr) on eigenvalues was too large:
     Diagonalizing with lowered threshold

     Davidson diagonalization with overlap

---- Real-time Memory Report at c_bands before calling an iterative solver
            73 MiB given to the printing process from OS
             0 MiB allocation reported by mallinfo(arena+hblkhd)
         13663 MiB available memory on the node where the printing process lives
------------------
     ethr =  8.02E-04,  avg # of iterations =  1.1

     total cpu time spent up to now is        1.4 secs

     total energy              =    -169.75135724 Ry
     estimated scf accuracy    <       0.19796656 Ry

     iteration #  2     ecut=    80.00 Ry     beta= 0.70
     Davidson diagonalization with overlap

---- Real-time Memory Report at c_bands before calling an iterative solver
            76 MiB given to the printing process from OS
             0 MiB allocation reported by mallinfo(arena+hblkhd)
         13652 MiB available memory on the node where the printing process lives
------------------
     ethr =  8.25E-04,  avg # of iterations =  2.2

     total cpu time spent up to now is        1.8 secs

     total energy              =    -169.79497343 Ry
     estimated scf accuracy    <       0.14234377 Ry

     iteration #  3     ecut=    80.00 Ry     beta= 0.70
     Davidson diagonalization with overlap

---- Real-time Memory Report at c_bands before calling an iterative solver
            76 MiB given to the printing process from OS
             0 MiB allocation reported by mallinfo(arena+hblkhd)
         13650 MiB available memory on the node where the printing process lives
------------------
     ethr =  5.93E-04,  avg # of iterations =  2.0

     total cpu time spent up to now is        2.1 secs

     total energy              =    -169.82689986 Ry
     estimated scf accuracy    <       0.00187531 Ry

     iteration #  4     ecut=    80.00 Ry     beta= 0.70
     Davidson diagonalization with overlap

---- Real-time Memory Report at c_bands before calling an iterative solver
            77 MiB given to the printing process from OS
             0 MiB allocation reported by mallinfo(arena+hblkhd)
         13649 MiB available memory on the node where the printing process lives
------------------
     ethr =  7.81E-06,  avg # of iterations =  2.9

     total cpu time spent up to now is        2.4 secs

     total energy              =    -169.82714423 Ry
     estimated scf accuracy    <       0.00001703 Ry

     iteration #  5     ecut=    80.00 Ry     beta= 0.70
     Davidson diagonalization with overlap

---- Real-time Memory Report at c_bands before calling an iterative solver
            77 MiB given to the printing process from OS
             0 MiB allocation reported by mallinfo(arena+hblkhd)
         13649 MiB available memory on the node where the printing process lives
------------------
     ethr =  7.10E-08,  avg # of iterations =  2.3

     total cpu time spent up to now is        2.7 secs

     total energy              =    -169.82714745 Ry
     estimated scf accuracy    <       0.00000276 Ry

     iteration #  6     ecut=    80.00 Ry     beta= 0.70
     Davidson diagonalization with overlap

---- Real-time Memory Report at c_bands before calling an iterative solver
            77 MiB given to the printing process from OS
             0 MiB allocation reported by mallinfo(arena+hblkhd)
         13648 MiB available memory on the node where the printing process lives
------------------
     ethr =  1.15E-08,  avg # of iterations =  2.0

     total cpu time spent up to now is        3.1 secs

     total energy              =    -169.82714807 Ry
     estimated scf accuracy    <       0.00000007 Ry

     iteration #  7     ecut=    80.00 Ry     beta= 0.70
     Davidson diagonalization with overlap

---- Real-time Memory Report at c_bands before calling an iterative solver
            77 MiB given to the printing process from OS
             0 MiB allocation reported by mallinfo(arena+hblkhd)
         13646 MiB available memory on the node where the printing process lives
------------------
     ethr =  3.09E-10,  avg # of iterations =  2.0

     total cpu time spent up to now is        3.3 secs

     End of self-consistent calculation

          k = 0.0000 0.0000 0.0000 (  3287 PWs)   bands (ev):

   -32.6598 -16.4491 -15.6771 -13.5954 -13.5954 -13.5954   1.2982   1.2982
     1.2982   3.1350   3.1350   3.1350  10.7212  12.5687  12.5687  14.6025
    14.6025  14.6025  20.3999  20.3999

     occupation numbers 
     1.0000   1.0000   1.0000   1.0000   1.0000   1.0000   1.0000   1.0000
     1.0000   1.0000   1.0000   1.0000   0.0000   0.0000   0.0000   0.0000
     0.0000   0.0000   0.0000   0.0000

          k =-0.1667 0.1667-0.1667 (  3329 PWs)   bands (ev):

   -32.6516 -16.5160 -15.7500 -13.6057 -13.6057 -13.4733   1.4190   1.4190
     1.5125   2.8398   3.0131   3.0131  11.3901  12.6226  12.6226  14.3690
    14.5362  14.5362  19.2674  20.9742

     occupation numbers 
     1.0000   1.0000   1.0000   1.0000   1.0000   1.0000   1.0000   1.0000
     1.0000   1.0000   1.0000   1.0000   0.0000   0.0000   0.0000   0.0000
     0.0000   0.0000   0.0000   0.0000

          k =-0.3333 0.3333-0.3333 (  3305 PWs)   bands (ev):

   -32.6353 -16.5878 -15.9613 -13.6262 -13.6262 -13.2183   1.7013   1.7013
     1.9269   2.3539   2.7396   2.7396  12.5875  12.7280  12.7280  14.1890
    14.4035  14.4035  17.6852  22.3385

     occupation numbers 
     1.0000   1.0000   1.0000   1.0000   1.0000   1.0000   1.0000   1.0000
     1.0000   1.0000   1.0000   1.0000   0.0000   0.0000   0.0000   0.0000
     0.0000   0.0000   0.0000   0.0000

          k = 0.5000-0.5000 0.5000 (  3316 PWs)   bands (ev):

   -32.6270 -16.5862 -16.1032 -13.6364 -13.6364 -13.0884   1.8921   1.8921
     2.1114   2.1612   2.5586   2.5586  12.7789  12.7789  13.1466  14.1601
    14.3375  14.3375  17.1490  23.2528

     occupation numbers 
     1.0000   1.0000   1.0000   1.0000   1.0000   1.0000   1.0000   1.0000
     1.0000   1.0000   1.0000   1.0000   0.0000   0.0000   0.0000   0.0000
     0.0000   0.0000   0.0000   0.0000

          k = 0.0000 0.3333 0.0000 (  3327 PWs)   bands (ev):

   -32.6489 -16.5480 -15.7556 -13.6211 -13.6211 -13.4172   1.3807   1.3807
     1.7608   2.4149   3.1461   3.1461  11.6021  12.5018  12.7719  14.2654
    14.4975  14.4975  19.9265  20.5953

     occupation numbers 
     1.0000   1.0000   1.0000   1.0000   1.0000   1.0000   1.0000   1.0000
     1.0000   1.0000   1.0000   1.0000   0.0000   0.0000   0.0000   0.0000
     0.0000   0.0000   0.0000   0.0000

          k =-0.1667 0.5000-0.1667 (  3328 PWs)   bands (ev):

   -32.6353 -16.6171 -15.9201 -13.6441 -13.5912 -13.2472   1.5399   1.5531
     1.8681   2.2707   2.9944   3.0207  12.1357  12.9323  12.9725  13.8868
    14.3873  14.5502  18.6661  21.1943

     occupation numbers 
     1.0000   1.0000   1.0000   1.0000   1.0000   1.0000   1.0000   1.0000
     1.0000   1.0000   1.0000   1.0000   0.0000   0.0000   0.0000   0.0000
     0.0000   0.0000   0.0000   0.0000

          k = 0.6667-0.3333 0.6667 (  3321 PWs)   bands (ev):

   -32.6244 -16.5690 -16.1766 -13.6518 -13.5201 -13.1421   1.5109   1.7601
     1.8343   2.6538   2.6996   2.8338  12.2487  12.9356  13.2237  13.8382
    14.3111  15.2968  17.5319  21.9283

     occupation numbers 
     1.0000   1.0000   1.0000   1.0000   1.0000   1.0000   1.0000   1.0000
     1.0000   1.0000   1.0000   1.0000   0.0000   0.0000   0.0000   0.0000
     0.0000   0.0000   0.0000   0.0000

          k = 0.5000-0.1667 0.5000 (  3334 PWs)   bands (ev):

   -32.6271 -16.5570 -16.1497 -13.6366 -13.5022 -13.2045   1.4326   1.9163
     2.0321   2.4054   2.4167   3.0562  12.2994  12.7878  13.2300  13.8304
    14.3457  15.1172  17.8188  20.8573

     occupation numbers 
     1.0000   1.0000   1.0000   1.0000   1.0000   1.0000   1.0000   1.0000
     1.0000   1.0000   1.0000   1.0000   0.0000   0.0000   0.0000   0.0000
     0.0000   0.0000   0.0000   0.0000

          k = 0.3333 0.0000 0.3333 (  3325 PWs)   bands (ev):

   -32.6407 -16.5718 -15.8869 -13.6135 -13.5679 -13.3576   1.3828   1.6986
     1.9199   2.3496   2.6844   3.1623  12.0961  12.6348  12.8314  14.0433
    14.4609  14.5603  18.8094  20.4475

     occupation numbers 
     1.0000   1.0000   1.0000   1.0000   1.0000   1.0000   1.0000   1.0000
     1.0000   1.0000   1.0000   1.0000   0.0000   0.0000   0.0000   0.0000
     0.0000   0.0000   0.0000   0.0000

          k = 0.0000 0.6667 0.0000 (  3347 PWs)   bands (ev):

   -32.6272 -16.7191 -15.9075 -13.6723 -13.6723 -13.0791   1.2251   1.6004
     1.6004   2.7944   3.1001   3.1001  11.8201  13.2195  13.4371  14.1121
    14.3228  14.3228  19.9431  20.8779

     occupation numbers 
     1.0000   1.0000   1.0000   1.0000   1.0000   1.0000   1.0000   1.0000
     1.0000   1.0000   1.0000   1.0000   0.0000   0.0000   0.0000   0.0000
     0.0000   0.0000   0.0000   0.0000

          k = 0.8333-0.1667 0.8333 (  3314 PWs)   bands (ev):

   -32.6190 -16.6982 -16.0893 -13.6825 -13.5793 -13.0283   0.9601   1.6821
     1.7698   2.9289   3.0015   3.1903  11.7340  13.1322  13.2792  13.9001
    14.2679  16.1290  18.7827  19.7757

     occupation numbers 
     1.0000   1.0000   1.0000   1.0000   1.0000   1.0000   1.0000   1.0000
     1.0000   1.0000   1.0000   1.0000   0.0000   0.0000   0.0000   0.0000
     0.0000   0.0000   0.0000   0.0000

          k = 0.6667-0.0000 0.6667 (  3318 PWs)   bands (ev):

   -32.6189 -16.4763 -16.3704 -13.6648 -13.3724 -13.1935   1.1249   1.6689
     2.0070   2.5619   2.8571   3.2341  11.9194  13.0521  13.2334  13.6232
    14.2741  16.7503  18.5745  18.7333

     occupation numbers 
     1.0000   1.0000   1.0000   1.0000   1.0000   1.0000   1.0000   1.0000
     1.0000   1.0000   1.0000   1.0000   0.0000   0.0000   0.0000   0.0000
     0.0000   0.0000   0.0000   0.0000

          k = 0.0000-1.0000 0.0000 (  3306 PWs)   bands (ev):

   -32.6163 -16.7945 -15.9811 -13.6977 -13.6977 -12.9155   0.7068   1.7513
     1.7513   3.0288   3.0288   3.3900  11.5275  12.9201  13.4693  14.2520
    14.2520  16.7294  18.2297  20.1619

     occupation numbers 
     1.0000   1.0000   1.0000   1.0000   1.0000   1.0000   1.0000   1.0000
     1.0000   1.0000   1.0000   1.0000   0.0000   0.0000   0.0000   0.0000
     0.0000   0.0000   0.0000   0.0000

          k = 0.6667-0.3333 1.0000 (  3317 PWs)   bands (ev):

   -32.6244 -16.6116 -16.1235 -13.6642 -13.4857 -13.1745   1.3868   1.4632
     1.9282   2.6686   2.7860   3.1430  11.9933  13.0142  13.4914  13.5222
    14.3214  15.3809  18.7314  20.1715

     occupation numbers 
     1.0000   1.0000   1.0000   1.0000   1.0000   1.0000   1.0000   1.0000
     1.0000   1.0000   1.0000   1.0000   0.0000   0.0000   0.0000   0.0000
     0.0000   0.0000   0.0000   0.0000

          k = 0.5000-0.1667 0.8333 (  3314 PWs)   bands (ev):

   -32.6189 -16.4805 -16.3657 -13.6783 -13.3390 -13.2139   1.3153   1.3466
     2.2345   2.3944   3.0534   3.1082  11.9623  13.0402  13.2995  13.5218
    14.2828  16.6729  18.0076  20.3459

     occupation numbers 
     1.0000   1.0000   1.0000   1.0000   1.0000   1.0000   1.0000   1.0000
     1.0000   1.0000   1.0000   1.0000   0.0000   0.0000   0.0000   0.0000
     0.0000   0.0000   0.0000   0.0000

          k =-0.3333-1.0000 0.0000 (  3322 PWs)   bands (ev):

   -32.6162 -16.6278 -16.2319 -13.6995 -13.4536 -13.0732   0.9515   1.4833
     2.0449   2.6814   3.0852   3.3287  11.7538  13.0976  13.2373  13.6680
    14.2667  17.9409  18.0062  19.2060

     occupation numbers 
     1.0000   1.0000   1.0000   1.0000   1.0000   1.0000   1.0000   1.0000
     1.0000   1.0000   1.0000   1.0000   0.0000   0.0000   0.0000   0.0000
     0.0000   0.0000   0.0000   0.0000

     highest occupied, lowest unoccupied level (ev):     3.3900   10.7212

!    total energy              =    -169.82714808 Ry
     estimated scf accuracy    <          3.6E-09 Ry

     convergence has been achieved in   7 iterations

     Using ACE for calculation of exact exchange

     EXX grid:    26469 G-vectors     FFT dimensions: (  45,  45,  45)
     ACE projected onto    20 (nbndproj) and applied to    20 (nbnd) bands

     EXX: now go back to refine exchange calculation

     total cpu time spent up to now is      689.9 secs

     Self-consistent Calculation

     iteration #  1     ecut=    80.00 Ry     beta= 0.70
     Davidson diagonalization with overlap

---- Real-time Memory Report at c_bands before calling an iterative solver
          1890 MiB given to the printing process from OS
             0 MiB allocation reported by mallinfo(arena+hblkhd)
          6446 MiB available memory on the node where the printing process lives
------------------
     ethr =  3.09E-10,  avg # of iterations =  7.9

     total cpu time spent up to now is      690.7 secs

     total energy              =    -169.88306911 Ry
     estimated scf accuracy    <       0.00656430 Ry

     iteration #  2     ecut=    80.00 Ry     beta= 0.70
     Davidson diagonalization with overlap

---- Real-time Memory Report at c_bands before calling an iterative solver
          1890 MiB given to the printing process from OS
             0 MiB allocation reported by mallinfo(arena+hblkhd)
          6444 MiB available memory on the node where the printing process lives
------------------
     ethr =  2.74E-05,  avg # of iterations =  2.0

     total cpu time spent up to now is      691.1 secs

     total energy              =    -169.88471274 Ry
     estimated scf accuracy    <       0.00183966 Ry

     iteration #  3     ecut=    80.00 Ry     beta= 0.70
     Davidson diagonalization with overlap

---- Real-time Memory Report at c_bands before calling an iterative solver
          1890 MiB given to the printing process from OS
             0 MiB allocation reported by mallinfo(arena+hblkhd)
          6443 MiB available memory on the node where the printing process lives
------------------
     ethr =  7.67E-06,  avg # of iterations =  2.0

     total cpu time spent up to now is      691.4 secs

     total energy              =    -169.88514530 Ry
     estimated scf accuracy    <       0.00003376 Ry

     iteration #  4     ecut=    80.00 Ry     beta= 0.70
     Davidson diagonalization with overlap

---- Real-time Memory Report at c_bands before calling an iterative solver
          1890 MiB given to the printing process from OS
             0 MiB allocation reported by mallinfo(arena+hblkhd)
          6441 MiB available memory on the node where the printing process lives
------------------
     ethr =  1.41E-07,  avg # of iterations =  1.0

     total cpu time spent up to now is      691.7 secs

     total energy              =    -169.88514862 Ry
     estimated scf accuracy    <       0.00000032 Ry

     iteration #  5     ecut=    80.00 Ry     beta= 0.70
     Davidson diagonalization with overlap

---- Real-time Memory Report at c_bands before calling an iterative solver
          1890 MiB given to the printing process from OS
             0 MiB allocation reported by mallinfo(arena+hblkhd)
          6441 MiB available memory on the node where the printing process lives
------------------
     ethr =  1.31E-09,  avg # of iterations =  2.0

     total cpu time spent up to now is      692.0 secs

     total energy              =    -169.88514867 Ry
     estimated scf accuracy    <       0.00000001 Ry

     iteration #  6     ecut=    80.00 Ry     beta= 0.70
     Davidson diagonalization with overlap

---- Real-time Memory Report at c_bands before calling an iterative solver
          1890 MiB given to the printing process from OS
             0 MiB allocation reported by mallinfo(arena+hblkhd)
          6440 MiB available memory on the node where the printing process lives
------------------
     ethr =  5.40E-11,  avg # of iterations =  2.0

     total cpu time spent up to now is      692.3 secs

     End of self-consistent calculation

          k = 0.0000 0.0000 0.0000 (  3287 PWs)   bands (ev):

   -40.5675 -24.0255 -23.2411 -18.3002 -18.3002 -18.3002  -2.7059  -2.7059
    -2.7059  -0.6800  -0.6800  -0.6800  11.9563  15.0897  15.0897  17.5784
    17.5784  17.5784  22.0697  22.0697

     occupation numbers 
     1.0000   1.0000   1.0000   1.0000   1.0000   1.0000   1.0000   1.0000
     1.0000   1.0000   1.0000   1.0000   0.0000   0.0000   0.0000   0.0000
     0.0000   0.0000   0.0000   0.0000

          k =-0.1667 0.1667-0.1667 (  3329 PWs)   bands (ev):

   -40.5581 -24.0466 -23.3104 -18.3139 -18.3138 -18.2305  -2.5719  -2.5719
    -2.4700  -0.9949  -0.8133  -0.8133  12.6785  15.1435  15.1443  17.2770
    17.4962  17.4962  20.9367  22.7409

     occupation numbers 
     1.0000   1.0000   1.0000   1.0000   1.0000   1.0000   1.0000   1.0000
     1.0000   1.0000   1.0000   1.0000   0.0000   0.0000   0.0000   0.0000
     0.0000   0.0000   0.0000   0.0000

          k =-0.3333 0.3333-0.3333 (  3305 PWs)   bands (ev):

   -40.5393 -24.0340 -23.5114 -18.3410 -18.3410 -18.0750  -2.2533  -2.2532
    -2.0146  -1.5372  -1.1215  -1.1215  14.1393  15.2619  15.2632  16.7861
    17.3332  17.3332  19.4970  24.3590

     occupation numbers 
     1.0000   1.0000   1.0000   1.0000   1.0000   1.0000   1.0000   1.0000
     1.0000   1.0000   1.0000   1.0000   0.0000   0.0000   0.0000   0.0000
     0.0000   0.0000   0.0000   0.0000

          k = 0.5000-0.5000 0.5000 (  3316 PWs)   bands (ev):

   -40.5298 -23.9680 -23.6747 -18.3544 -18.3544 -17.9902  -2.0280  -2.0280
    -1.8319  -1.7402  -1.3374  -1.3374  15.3268  15.3269  15.5541  15.6402
    17.2517  17.2517  19.3567  25.4777

     occupation numbers 
     1.0000   1.0000   1.0000   1.0000   1.0000   1.0000   1.0000   1.0000
     1.0000   1.0000   1.0000   1.0000   0.0000   0.0000   0.0000   0.0000
     0.0000   0.0000   0.0000   0.0000

          k = 0.0000 0.3333 0.0000 (  3327 PWs)   bands (ev):

   -40.5550 -24.0625 -23.3210 -18.3337 -18.3337 -18.1799  -2.6179  -2.6179
    -2.1908  -1.4528  -0.6704  -0.6704  12.9109  14.9283  15.3559  17.1427
    17.4523  17.4526  21.6805  22.3815

     occupation numbers 
     1.0000   1.0000   1.0000   1.0000   1.0000   1.0000   1.0000   1.0000
     1.0000   1.0000   1.0000   1.0000   0.0000   0.0000   0.0000   0.0000
     0.0000   0.0000   0.0000   0.0000

          k =-0.1667 0.5000-0.1667 (  3328 PWs)   bands (ev):

   -40.5393 -24.0713 -23.4648 -18.3639 -18.3290 -18.0741  -2.4380  -2.4282
    -2.0678  -1.6277  -0.8365  -0.8096  13.8755  15.0981  15.5560  16.6300
    17.3230  17.4261  20.5342  23.1732

     occupation numbers 
     1.0000   1.0000   1.0000   1.0000   1.0000   1.0000   1.0000   1.0000
     1.0000   1.0000   1.0000   1.0000   0.0000   0.0000   0.0000   0.0000
     0.0000   0.0000   0.0000   0.0000

          k = 0.6667-0.3333 0.6667 (  3321 PWs)   bands (ev):

   -40.5267 -23.9747 -23.6953 -18.3742 -18.2857 -18.0249  -2.4543  -2.2175
    -2.1099  -1.2047  -1.1679  -1.0213  14.2932  15.5424  15.7064  16.3077
    17.2276  17.6764  19.6695  24.2612

     occupation numbers 
     1.0000   1.0000   1.0000   1.0000   1.0000   1.0000   1.0000   1.0000
     1.0000   1.0000   1.0000   1.0000   0.0000   0.0000   0.0000   0.0000
     0.0000   0.0000   0.0000   0.0000

          k = 0.5000-0.1667 0.5000 (  3334 PWs)   bands (ev):

   -40.5298 -23.9861 -23.6549 -18.3546 -18.2737 -18.0730  -2.5506  -2.0345
    -1.8829  -1.4928  -1.4762  -0.7706  14.2429  15.3309  15.6413  16.4724
    17.2643  17.6530  19.8350  22.9971

     occupation numbers 
     1.0000   1.0000   1.0000   1.0000   1.0000   1.0000   1.0000   1.0000
     1.0000   1.0000   1.0000   1.0000   0.0000   0.0000   0.0000   0.0000
     0.0000   0.0000   0.0000   0.0000

          k = 0.3333 0.0000 0.3333 (  3325 PWs)   bands (ev):

   -40.5455 -24.0545 -23.4257 -18.3244 -18.3111 -18.1591  -2.6125  -2.2608
    -2.0210  -1.5373  -1.1716  -0.6538  13.5470  15.1346  15.3050  16.8813
    17.4025  17.4564  20.6089  22.3165

     occupation numbers 
     1.0000   1.0000   1.0000   1.0000   1.0000   1.0000   1.0000   1.0000
     1.0000   1.0000   1.0000   1.0000   0.0000   0.0000   0.0000   0.0000
     0.0000   0.0000   0.0000   0.0000

          k = 0.0000 0.6667 0.0000 (  3347 PWs)   bands (ev):

   -40.5299 -24.1321 -23.4761 -18.4001 -18.4001 -17.9349  -2.7676  -2.3862
    -2.3862  -1.0507  -0.7185  -0.7185  13.7514  15.8731  15.9600  16.0907
    17.2595  17.2597  22.0544  22.8974

     occupation numbers 
     1.0000   1.0000   1.0000   1.0000   1.0000   1.0000   1.0000   1.0000
     1.0000   1.0000   1.0000   1.0000   0.0000   0.0000   0.0000   0.0000
     0.0000   0.0000   0.0000   0.0000

          k = 0.8333-0.1667 0.8333 (  3314 PWs)   bands (ev):

   -40.5205 -24.0903 -23.6164 -18.4135 -18.3527 -17.9071  -3.0711  -2.2980
    -2.2018  -0.9028  -0.8266  -0.6212  13.6743  15.6989  16.0297  16.4886
    17.1952  18.3105  20.9910  21.9959

     occupation numbers 
     1.0000   1.0000   1.0000   1.0000   1.0000   1.0000   1.0000   1.0000
     1.0000   1.0000   1.0000   1.0000   0.0000   0.0000   0.0000   0.0000
     0.0000   0.0000   0.0000   0.0000

          k = 0.6667-0.0000 0.6667 (  3318 PWs)   bands (ev):

   -40.5204 -23.8985 -23.8305 -18.3909 -18.2084 -18.0509  -2.8977  -2.3053
    -1.9339  -1.3047  -0.9963  -0.5706  13.8823  15.6943  15.7524  16.2835
    17.1894  19.0789  20.7450  20.8678

     occupation numbers 
     1.0000   1.0000   1.0000   1.0000   1.0000   1.0000   1.0000   1.0000
     1.0000   1.0000   1.0000   1.0000   0.0000   0.0000   0.0000   0.0000
     0.0000   0.0000   0.0000   0.0000

          k = 0.0000-1.0000 0.0000 (  3306 PWs)   bands (ev):

   -40.5173 -24.1651 -23.5515 -18.4330 -18.4330 -17.8095  -3.3482  -2.2300
    -2.2300  -0.7892  -0.7892  -0.4061  13.4263  15.4548  16.3107  17.1881
    17.1881  18.4542  20.5697  22.4510

     occupation numbers 
     1.0000   1.0000   1.0000   1.0000   1.0000   1.0000   1.0000   1.0000
     1.0000   1.0000   1.0000   1.0000   0.0000   0.0000   0.0000   0.0000
     0.0000   0.0000   0.0000   0.0000

          k = 0.6667-0.3333 1.0000 (  3317 PWs)   bands (ev):

   -40.5267 -24.0360 -23.6250 -18.3909 -18.2747 -18.0287  -2.5838  -2.5477
    -2.0189  -1.1974  -1.0642  -0.6709  13.9430  15.5821  15.9126  16.1538
    17.2538  17.8661  20.8171  22.2740

     occupation numbers 
     1.0000   1.0000   1.0000   1.0000   1.0000   1.0000   1.0000   1.0000
     1.0000   1.0000   1.0000   1.0000   0.0000   0.0000   0.0000   0.0000
     0.0000   0.0000   0.0000   0.0000

          k = 0.5000-0.1667 0.8333 (  3314 PWs)   bands (ev):

   -40.5204 -23.9006 -23.8283 -18.4089 -18.1623 -18.0791  -2.7220  -2.6225
    -1.6754  -1.5102  -0.7684  -0.7114  13.9363  15.6759  15.8610  16.0990
    17.2129  18.9566  20.1876  22.6571

     occupation numbers 
     1.0000   1.0000   1.0000   1.0000   1.0000   1.0000   1.0000   1.0000
     1.0000   1.0000   1.0000   1.0000   0.0000   0.0000   0.0000   0.0000
     0.0000   0.0000   0.0000   0.0000

          k =-0.3333-1.0000 0.0000 (  3322 PWs)   bands (ev):

   -40.5173 -24.0254 -23.7202 -18.4353 -18.2603 -17.9503  -3.0921  -2.5062
    -1.9003  -1.1827  -0.7268  -0.4731  13.6954  15.6424  15.9615  16.2846
    17.2081  20.1163  20.3299  21.3720

     occupation numbers 
     1.0000   1.0000   1.0000   1.0000   1.0000   1.0000   1.0000   1.0000
     1.0000   1.0000   1.0000   1.0000   0.0000   0.0000   0.0000   0.0000
     0.0000   0.0000   0.0000   0.0000

     highest occupied, lowest unoccupied level (ev):    -0.4061   11.9563

!    total energy              =    -169.88514867 Ry
     estimated scf accuracy    <          1.9E-09 Ry

     convergence has been achieved in   6 iterations

     Using ACE for calculation of exact exchange
     ACE projected onto    20 (nbndproj) and applied to    20 (nbnd) bands

     total energy              =    -169.88809249 Ry
     Harris-Foulkes estimate   =    -169.88809249 Ry
     est. exchange err (dexx)  =       0.00294382 Ry
     - averaged Fock potential =      27.24988004 Ry
     + Fock energy (ACE)       =     -13.66283541 Ry

     EXX: now go back to refine exchange calculation

     total cpu time spent up to now is     1378.5 secs

     Self-consistent Calculation

     iteration #  1     ecut=    80.00 Ry     beta= 0.70
     Davidson diagonalization with overlap

---- Real-time Memory Report at c_bands before calling an iterative solver
          1890 MiB given to the printing process from OS
             0 MiB allocation reported by mallinfo(arena+hblkhd)
          6452 MiB available memory on the node where the printing process lives
------------------
     ethr =  5.40E-11,  avg # of iterations =  6.3

     total cpu time spent up to now is     1379.2 secs

     total energy              =    -169.88851668 Ry
     estimated scf accuracy    <       0.00017938 Ry

     iteration #  2     ecut=    80.00 Ry     beta= 0.70
     Davidson diagonalization with overlap

---- Real-time Memory Report at c_bands before calling an iterative solver
          1890 MiB given to the printing process from OS
             0 MiB allocation reported by mallinfo(arena+hblkhd)
          6440 MiB available memory on the node where the printing process lives
------------------
     ethr =  7.47E-07,  avg # of iterations =  2.0

     total cpu time spent up to now is     1379.5 secs

     total energy              =    -169.88856145 Ry
     estimated scf accuracy    <       0.00004983 Ry

     iteration #  3     ecut=    80.00 Ry     beta= 0.70
     Davidson diagonalization with overlap

---- Real-time Memory Report at c_bands before calling an iterative solver
          1890 MiB given to the printing process from OS
             0 MiB allocation reported by mallinfo(arena+hblkhd)
          6439 MiB available memory on the node where the printing process lives
------------------
     ethr =  2.08E-07,  avg # of iterations =  2.0

     total cpu time spent up to now is     1379.8 secs

     total energy              =    -169.88857309 Ry
     estimated scf accuracy    <       0.00000087 Ry

     iteration #  4     ecut=    80.00 Ry     beta= 0.70
     Davidson diagonalization with overlap

---- Real-time Memory Report at c_bands before calling an iterative solver
          1890 MiB given to the printing process from OS
             0 MiB allocation reported by mallinfo(arena+hblkhd)
          6437 MiB available memory on the node where the printing process lives
------------------
     ethr =  3.62E-09,  avg # of iterations =  1.1

     total cpu time spent up to now is     1380.1 secs

     total energy              =    -169.88857317 Ry
     estimated scf accuracy    <       0.00000001 Ry

     iteration #  5     ecut=    80.00 Ry     beta= 0.70
     Davidson diagonalization with overlap

---- Real-time Memory Report at c_bands before calling an iterative solver
          1890 MiB given to the printing process from OS
             0 MiB allocation reported by mallinfo(arena+hblkhd)
          6437 MiB available memory on the node where the printing process lives
------------------
     ethr =  4.92E-11,  avg # of iterations =  2.0

     total cpu time spent up to now is     1380.4 secs

     End of self-consistent calculation

          k = 0.0000 0.0000 0.0000 (  3287 PWs)   bands (ev):

   -40.5917 -24.0370 -23.2587 -18.3088 -18.3088 -18.3088  -2.6954  -2.6954
    -2.6954  -0.7015  -0.7015  -0.7015  12.0411  15.1104  15.1104  17.5971
    17.5971  17.5971  22.1087  22.1087

     occupation numbers 
     1.0000   1.0000   1.0000   1.0000   1.0000   1.0000   1.0000   1.0000
     1.0000   1.0000   1.0000   1.0000   0.0000   0.0000   0.0000   0.0000
     0.0000   0.0000   0.0000   0.0000

          k =-0.1667 0.1667-0.1667 (  3329 PWs)   bands (ev):

   -40.5825 -24.0570 -23.3273 -18.3220 -18.3220 -18.2401  -2.5633  -2.5633
    -2.4644  -1.0065  -0.8319  -0.8319  12.7524  15.1627  15.1627  17.2992
    17.5164  17.5164  20.9785  22.7761

     occupation numbers 
     1.0000   1.0000   1.0000   1.0000   1.0000   1.0000   1.0000   1.0000
     1.0000   1.0000   1.0000   1.0000   0.0000   0.0000   0.0000   0.0000
     0.0000   0.0000   0.0000   0.0000

          k =-0.3333 0.3333-0.3333 (  3305 PWs)   bands (ev):

   -40.5640 -24.0427 -23.5262 -18.3483 -18.3483 -18.0869  -2.2480  -2.2480
    -2.0177  -1.5370  -1.1361  -1.1361  14.1999  15.2783  15.2783  16.8160
    17.3562  17.3562  19.5382  24.3881

     occupation numbers 
     1.0000   1.0000   1.0000   1.0000   1.0000   1.0000   1.0000   1.0000
     1.0000   1.0000   1.0000   1.0000   0.0000   0.0000   0.0000   0.0000
     0.0000   0.0000   0.0000   0.0000

          k = 0.5000-0.5000 0.5000 (  3316 PWs)   bands (ev):

   -40.5548 -23.9757 -23.6886 -18.3613 -18.3613 -18.0034  -2.0229  -2.0229
    -1.8297  -1.7455  -1.3518  -1.3518  15.3409  15.3409  15.6065  15.6851
    17.2760  17.2760  19.3900  25.5114

     occupation numbers 
     1.0000   1.0000   1.0000   1.0000   1.0000   1.0000   1.0000   1.0000
     1.0000   1.0000   1.0000   1.0000   0.0000   0.0000   0.0000   0.0000
     0.0000   0.0000   0.0000   0.0000

          k = 0.0000 0.3333 0.0000 (  3327 PWs)   bands (ev):

   -40.5794 -24.0724 -23.3379 -18.3412 -18.3412 -18.1908  -2.6111  -2.6111
    -2.1857  -1.4579  -0.6900  -0.6900  12.9808  14.9506  15.3735  17.1647
    17.4741  17.4741  21.7167  22.4183

     occupation numbers 
     1.0000   1.0000   1.0000   1.0000   1.0000   1.0000   1.0000   1.0000
     1.0000   1.0000   1.0000   1.0000   0.0000   0.0000   0.0000   0.0000
     0.0000   0.0000   0.0000   0.0000

          k =-0.1667 0.5000-0.1667 (  3328 PWs)   bands (ev):

   -40.5641 -24.0798 -23.4800 -18.3704 -18.3363 -18.0866  -2.4346  -2.4255
    -2.0638  -1.6306  -0.8511  -0.8256  13.9260  15.1277  15.5710  16.6579
    17.3474  17.4500  20.5709  23.2063

     occupation numbers 
     1.0000   1.0000   1.0000   1.0000   1.0000   1.0000   1.0000   1.0000
     1.0000   1.0000   1.0000   1.0000   0.0000   0.0000   0.0000   0.0000
     0.0000   0.0000   0.0000   0.0000

          k = 0.6667-0.3333 0.6667 (  3321 PWs)   bands (ev):

   -40.5518 -23.9829 -23.7080 -18.3804 -18.2938 -18.0376  -2.4467  -2.2164
    -2.1102  -1.2154  -1.1791  -1.0326  14.3299  15.5548  15.7511  16.3379
    17.2532  17.7033  19.7033  24.2831

     occupation numbers 
     1.0000   1.0000   1.0000   1.0000   1.0000   1.0000   1.0000   1.0000
     1.0000   1.0000   1.0000   1.0000   0.0000   0.0000   0.0000   0.0000
     0.0000   0.0000   0.0000   0.0000

          k = 0.5000-0.1667 0.5000 (  3334 PWs)   bands (ev):

   -40.5548 -23.9947 -23.6677 -18.3615 -18.2820 -18.0847  -2.5458  -2.0305
    -1.8807  -1.5036  -1.4860  -0.7848  14.2903  15.3439  15.6717  16.5052
    17.2886  17.6788  19.8707  23.0270

     occupation numbers 
     1.0000   1.0000   1.0000   1.0000   1.0000   1.0000   1.0000   1.0000
     1.0000   1.0000   1.0000   1.0000   0.0000   0.0000   0.0000   0.0000
     0.0000   0.0000   0.0000   0.0000

          k = 0.3333 0.0000 0.3333 (  3325 PWs)   bands (ev):

   -40.5702 -24.0638 -23.4412 -18.3323 -18.3188 -18.1698  -2.6066  -2.2548
    -2.0222  -1.5390  -1.1852  -0.6719  13.6103  15.1503  15.3251  16.9081
    17.4241  17.4795  20.6474  22.3519

     occupation numbers 
     1.0000   1.0000   1.0000   1.0000   1.0000   1.0000   1.0000   1.0000
     1.0000   1.0000   1.0000   1.0000   0.0000   0.0000   0.0000   0.0000
     0.0000   0.0000   0.0000   0.0000

          k = 0.0000 0.6667 0.0000 (  3347 PWs)   bands (ev):

   -40.5549 -24.1392 -23.4915 -18.4055 -18.4055 -17.9503  -2.7526  -2.3886
    -2.3886  -1.0606  -0.7324  -0.7324  13.7865  15.9186  15.9712  16.1240
    17.2866  17.2866  22.0715  22.9324

     occupation numbers 
     1.0000   1.0000   1.0000   1.0000   1.0000   1.0000   1.0000   1.0000
     1.0000   1.0000   1.0000   1.0000   0.0000   0.0000   0.0000   0.0000
     0.0000   0.0000   0.0000   0.0000

          k = 0.8333-0.1667 0.8333 (  3314 PWs)   bands (ev):

   -40.5457 -24.0971 -23.6299 -18.4185 -18.3588 -17.9228  -3.0546  -2.3017
    -2.2083  -0.9122  -0.8379  -0.6384  13.7088  15.7385  16.0389  16.5293
    17.2233  18.3417  21.0178  22.0227

     occupation numbers 
     1.0000   1.0000   1.0000   1.0000   1.0000   1.0000   1.0000   1.0000
     1.0000   1.0000   1.0000   1.0000   0.0000   0.0000   0.0000   0.0000
     0.0000   0.0000   0.0000   0.0000

          k = 0.6667-0.0000 0.6667 (  3318 PWs)   bands (ev):

   -40.5456 -23.9078 -23.8410 -18.3967 -18.2173 -18.0636  -2.8880  -2.3026
    -1.9421  -1.3085  -1.0107  -0.5865  13.9213  15.7043  15.7888  16.3244
    17.2163  19.1018  20.7762  20.9009

     occupation numbers 
     1.0000   1.0000   1.0000   1.0000   1.0000   1.0000   1.0000   1.0000
     1.0000   1.0000   1.0000   1.0000   0.0000   0.0000   0.0000   0.0000
     0.0000   0.0000   0.0000   0.0000

          k = 0.0000-1.0000 0.0000 (  3306 PWs)   bands (ev):

   -40.5426 -24.1708 -23.5662 -18.4374 -18.4374 -17.8272  -3.3265  -2.2389
    -2.2389  -0.7983  -0.7983  -0.4269  13.4652  15.4974  16.3186  17.2173
    17.2173  18.5015  20.5958  22.4724

     occupation numbers 
     1.0000   1.0000   1.0000   1.0000   1.0000   1.0000   1.0000   1.0000
     1.0000   1.0000   1.0000   1.0000   0.0000   0.0000   0.0000   0.0000
     0.0000   0.0000   0.0000   0.0000

          k = 0.6667-0.3333 1.0000 (  3317 PWs)   bands (ev):

   -40.5518 -24.0441 -23.6381 -18.3965 -18.2828 -18.0418  -2.5736  -2.5463
    -2.0218  -1.2078  -1.0753  -0.6850  13.9811  15.6037  15.9405  16.1904
    17.2803  17.8924  20.8472  22.3065

     occupation numbers 
     1.0000   1.0000   1.0000   1.0000   1.0000   1.0000   1.0000   1.0000
     1.0000   1.0000   1.0000   1.0000   0.0000   0.0000   0.0000   0.0000
     0.0000   0.0000   0.0000   0.0000

          k = 0.5000-0.1667 0.8333 (  3314 PWs)   bands (ev):

   -40.5456 -23.9098 -23.8390 -18.4140 -18.1728 -18.0908  -2.7162  -2.6159
    -1.6798  -1.5203  -0.7783  -0.7290  13.9735  15.6894  15.8998  16.1370
    17.2406  18.9806  20.2206  22.6825

     occupation numbers 
     1.0000   1.0000   1.0000   1.0000   1.0000   1.0000   1.0000   1.0000
     1.0000   1.0000   1.0000   1.0000   0.0000   0.0000   0.0000   0.0000
     0.0000   0.0000   0.0000   0.0000

          k =-0.3333-1.0000 0.0000 (  3322 PWs)   bands (ev):

   -40.5426 -24.0329 -23.7322 -18.4395 -18.2685 -17.9650  -3.0779  -2.5067
    -1.9090  -1.1914  -0.7357  -0.4939  13.7300  15.6807  15.9710  16.3265
    17.2373  20.1500  20.3477  21.4057

     occupation numbers 
     1.0000   1.0000   1.0000   1.0000   1.0000   1.0000   1.0000   1.0000
     1.0000   1.0000   1.0000   1.0000   0.0000   0.0000   0.0000   0.0000
     0.0000   0.0000   0.0000   0.0000

     highest occupied, lowest unoccupied level (ev):    -0.4269   12.0411

!    total energy              =    -169.88857317 Ry
     estimated scf accuracy    <          1.2E-10 Ry

     convergence has been achieved in   5 iterations

     Using ACE for calculation of exact exchange
     ACE projected onto    20 (nbndproj) and applied to    20 (nbnd) bands

     total energy              =    -169.88865490 Ry
     Harris-Foulkes estimate   =    -169.88865490 Ry
     est. exchange err (dexx)  =       0.00008172 Ry
     - averaged Fock potential =      27.33905741 Ry
     + Fock energy (ACE)       =     -13.67630372 Ry

     EXX: now go back to refine exchange calculation

     total cpu time spent up to now is     2070.0 secs

     Self-consistent Calculation

     iteration #  1     ecut=    80.00 Ry     beta= 0.70
     Davidson diagonalization with overlap

---- Real-time Memory Report at c_bands before calling an iterative solver
          1890 MiB given to the printing process from OS
             0 MiB allocation reported by mallinfo(arena+hblkhd)
          6459 MiB available memory on the node where the printing process lives
------------------
     ethr =  4.92E-11,  avg # of iterations =  5.4

     total cpu time spent up to now is     2070.6 secs

     total energy              =    -169.88866726 Ry
     estimated scf accuracy    <       0.00000606 Ry

     iteration #  2     ecut=    80.00 Ry     beta= 0.70
     Davidson diagonalization with overlap

---- Real-time Memory Report at c_bands before calling an iterative solver
          1890 MiB given to the printing process from OS
             0 MiB allocation reported by mallinfo(arena+hblkhd)
          6446 MiB available memory on the node where the printing process lives
------------------
     ethr =  2.52E-08,  avg # of iterations =  2.0

     total cpu time spent up to now is     2070.9 secs

     total energy              =    -169.88866880 Ry
     estimated scf accuracy    <       0.00000167 Ry

     iteration #  3     ecut=    80.00 Ry     beta= 0.70
     Davidson diagonalization with overlap

---- Real-time Memory Report at c_bands before calling an iterative solver
          1890 MiB given to the printing process from OS
             0 MiB allocation reported by mallinfo(arena+hblkhd)
          6446 MiB available memory on the node where the printing process lives
------------------
     ethr =  6.98E-09,  avg # of iterations =  2.0

     total cpu time spent up to now is     2071.3 secs

     total energy              =    -169.88866919 Ry
     estimated scf accuracy    <       0.00000003 Ry

     iteration #  4     ecut=    80.00 Ry     beta= 0.70
     Davidson diagonalization with overlap

---- Real-time Memory Report at c_bands before calling an iterative solver
          1890 MiB given to the printing process from OS
             0 MiB allocation reported by mallinfo(arena+hblkhd)
[...]

          k =-0.1667 0.1667-0.1667 (  3329 PWs)   bands (ev):

   -40.5867 -24.0547 -23.3260 -18.3237 -18.3237 -18.2420  -2.5607  -2.5607
    -2.4622  -1.0079  -0.8349  -0.8349  12.7693  15.1686  15.1686  17.3048
    17.5214  17.5214  20.9882  22.7843

     occupation numbers 
     1.0000   1.0000   1.0000   1.0000   1.0000   1.0000   1.0000   1.0000
     1.0000   1.0000   1.0000   1.0000   0.0000   0.0000   0.0000   0.0000
     0.0000   0.0000   0.0000   0.0000

          k =-0.3333 0.3333-0.3333 (  3305 PWs)   bands (ev):

   -40.5683 -24.0402 -23.5247 -18.3498 -18.3498 -18.0891  -2.2460  -2.2460
    -2.0172  -1.5359  -1.1382  -1.1382  14.2139  15.2835  15.2835  16.8233
    17.3620  17.3620  19.5482  24.3952

     occupation numbers 
     1.0000   1.0000   1.0000   1.0000   1.0000   1.0000   1.0000   1.0000
     1.0000   1.0000   1.0000   1.0000   0.0000   0.0000   0.0000   0.0000
     0.0000   0.0000   0.0000   0.0000

          k = 0.5000-0.5000 0.5000 (  3316 PWs)   bands (ev):

   -40.5591 -23.9731 -23.6869 -18.3627 -18.3627 -18.0057  -2.0208  -2.0208
    -1.8285  -1.7451  -1.3540  -1.3540  15.3459  15.3459  15.6186  15.6956
    17.2820  17.2820  19.3979  25.5190

     occupation numbers 
     1.0000   1.0000   1.0000   1.0000   1.0000   1.0000   1.0000   1.0000
     1.0000   1.0000   1.0000   1.0000   0.0000   0.0000   0.0000   0.0000
     0.0000   0.0000   0.0000   0.0000

          k = 0.0000 0.3333 0.0000 (  3327 PWs)   bands (ev):

   -40.5836 -24.0701 -23.3366 -18.3428 -18.3428 -18.1930  -2.6088  -2.6088
    -2.1837  -1.4578  -0.6933  -0.6933  12.9969  14.9571  15.3792  17.1704
    17.4796  17.4796  21.7256  22.4267

     occupation numbers 
     1.0000   1.0000   1.0000   1.0000   1.0000   1.0000   1.0000   1.0000
     1.0000   1.0000   1.0000   1.0000   0.0000   0.0000   0.0000   0.0000
     0.0000   0.0000   0.0000   0.0000

          k =-0.1667 0.5000-0.1667 (  3328 PWs)   bands (ev):

   -40.5684 -24.0773 -23.4785 -18.3718 -18.3378 -18.0889  -2.4328  -2.4240
    -2.0618  -1.6303  -0.8533  -0.8281  13.9377  15.1360  15.5760  16.6652
    17.3534  17.4559  20.5799  23.2142

     occupation numbers 
     1.0000   1.0000   1.0000   1.0000   1.0000   1.0000   1.0000   1.0000
     1.0000   1.0000   1.0000   1.0000   0.0000   0.0000   0.0000   0.0000
     0.0000   0.0000   0.0000   0.0000

          k = 0.6667-0.3333 0.6667 (  3321 PWs)   bands (ev):

   -40.5561 -23.9803 -23.7061 -18.3818 -18.2954 -18.0399  -2.4439  -2.2153
    -2.1093  -1.2166  -1.1807  -1.0342  14.3388  15.5593  15.7616  16.3459
    17.2595  17.7100  19.7114  24.2885

     occupation numbers 
     1.0000   1.0000   1.0000   1.0000   1.0000   1.0000   1.0000   1.0000
     1.0000   1.0000   1.0000   1.0000   0.0000   0.0000   0.0000   0.0000
     0.0000   0.0000   0.0000   0.0000

          k = 0.5000-0.1667 0.5000 (  3334 PWs)   bands (ev):

   -40.5591 -23.9922 -23.6659 -18.3630 -18.2837 -18.0868  -2.5437  -2.0287
    -1.8793  -1.5050  -1.4870  -0.7869  14.3013  15.3487  15.6797  16.5131
    17.2946  17.6852  19.8793  23.0345

     occupation numbers 
     1.0000   1.0000   1.0000   1.0000   1.0000   1.0000   1.0000   1.0000
     1.0000   1.0000   1.0000   1.0000   0.0000   0.0000   0.0000   0.0000
     0.0000   0.0000   0.0000   0.0000

          k = 0.3333 0.0000 0.3333 (  3325 PWs)   bands (ev):

   -40.5745 -24.0614 -23.4397 -18.3339 -18.3204 -18.1718  -2.6044  -2.2527
    -2.0215  -1.5383  -1.1871  -0.6748  13.6248  15.1557  15.3311  16.9149
    17.4295  17.4852  20.6567  22.3604

     occupation numbers 
     1.0000   1.0000   1.0000   1.0000   1.0000   1.0000   1.0000   1.0000
     1.0000   1.0000   1.0000   1.0000   0.0000   0.0000   0.0000   0.0000
     0.0000   0.0000   0.0000   0.0000

          k = 0.0000 0.6667 0.0000 (  3347 PWs)   bands (ev):

   -40.5592 -24.1365 -23.4900 -18.4067 -18.4067 -17.9532  -2.7482  -2.3882
    -2.3882  -1.0616  -0.7346  -0.7346  13.7947  15.9300  15.9752  16.1327
    17.2931  17.2931  22.0757  22.9405

     occupation numbers 
     1.0000   1.0000   1.0000   1.0000   1.0000   1.0000   1.0000   1.0000
     1.0000   1.0000   1.0000   1.0000   0.0000   0.0000   0.0000   0.0000
     0.0000   0.0000   0.0000   0.0000

          k = 0.8333-0.1667 0.8333 (  3314 PWs)   bands (ev):

   -40.5500 -24.0944 -23.6282 -18.4196 -18.3601 -17.9256  -3.0498  -2.3015
    -2.2087  -0.9134  -0.8394  -0.6409  13.7170  15.7487  16.0424  16.5389
    17.2301  18.3494  21.0248  22.0293

     occupation numbers 
     1.0000   1.0000   1.0000   1.0000   1.0000   1.0000   1.0000   1.0000
     1.0000   1.0000   1.0000   1.0000   0.0000   0.0000   0.0000   0.0000
     0.0000   0.0000   0.0000   0.0000

          k = 0.6667-0.0000 0.6667 (  3318 PWs)   bands (ev):

   -40.5500 -23.9054 -23.8388 -18.3979 -18.2190 -18.0659  -2.8848  -2.3010
    -1.9429  -1.3085  -1.0128  -0.5889  13.9305  15.7083  15.7983  16.3339
    17.2229  19.1079  20.7839  20.9089

     occupation numbers 
     1.0000   1.0000   1.0000   1.0000   1.0000   1.0000   1.0000   1.0000
     1.0000   1.0000   1.0000   1.0000   0.0000   0.0000   0.0000   0.0000
     0.0000   0.0000   0.0000   0.0000

          k = 0.0000-1.0000 0.0000 (  3306 PWs)   bands (ev):

   -40.5470 -24.1679 -23.5646 -18.4384 -18.4384 -17.8304  -3.3206  -2.2397
    -2.2397  -0.7994  -0.7994  -0.4302  13.4735  15.5084  16.3215  17.2243
    17.2243  18.5127  20.6023  22.4782

     occupation numbers 
     1.0000   1.0000   1.0000   1.0000   1.0000   1.0000   1.0000   1.0000
     1.0000   1.0000   1.0000   1.0000   0.0000   0.0000   0.0000   0.0000
     0.0000   0.0000   0.0000   0.0000

          k = 0.6667-0.3333 1.0000 (  3317 PWs)   bands (ev):

   -40.5561 -24.0415 -23.6363 -18.3978 -18.2844 -18.0443  -2.5701  -2.5451
    -2.0216  -1.2091  -1.0767  -0.6871  13.9902  15.6101  15.9482  16.1993
    17.2867  17.8989  20.8548  22.3143

     occupation numbers 
     1.0000   1.0000   1.0000   1.0000   1.0000   1.0000   1.0000   1.0000
     1.0000   1.0000   1.0000   1.0000   0.0000   0.0000   0.0000   0.0000
     0.0000   0.0000   0.0000   0.0000

          k = 0.5000-0.1667 0.8333 (  3314 PWs)   bands (ev):

   -40.5500 -23.9073 -23.8368 -18.4152 -18.1748 -18.0930  -2.7142  -2.6130
    -1.6799  -1.5216  -0.7796  -0.7316  13.9820  15.6940  15.9097  16.1462
    17.2473  18.9870  20.2282  22.6891

     occupation numbers 
     1.0000   1.0000   1.0000   1.0000   1.0000   1.0000   1.0000   1.0000
     1.0000   1.0000   1.0000   1.0000   0.0000   0.0000   0.0000   0.0000
     0.0000   0.0000   0.0000   0.0000

          k =-0.3333-1.0000 0.0000 (  3322 PWs)   bands (ev):

   -40.5470 -24.0303 -23.7302 -18.4405 -18.2701 -17.9677  -3.0737  -2.5056
    -1.9099  -1.1924  -0.7368  -0.4972  13.7380  15.6912  15.9746  16.3363
    17.2443  20.1581  20.3532  21.4132

     occupation numbers 
     1.0000   1.0000   1.0000   1.0000   1.0000   1.0000   1.0000   1.0000
     1.0000   1.0000   1.0000   1.0000   0.0000   0.0000   0.0000   0.0000
     0.0000   0.0000   0.0000   0.0000

     highest occupied, lowest unoccupied level (ev):    -0.4302   12.0605

!    total energy              =    -169.88867221 Ry
     estimated scf accuracy    <          9.3E-10 Ry

     convergence has been achieved in   3 iterations

     Using ACE for calculation of exact exchange
     ACE projected onto    20 (nbndproj) and applied to    20 (nbnd) bands

     total energy              =    -169.88867230 Ry
     Harris-Foulkes estimate   =    -169.88867230 Ry
     est. exchange err (dexx)  =       0.00000009 Ry
     - averaged Fock potential =      27.35827691 Ry
     + Fock energy (ACE)       =     -13.67938747 Ry

     EXX: now go back to refine exchange calculation

     total cpu time spent up to now is     3623.3 secs

     Self-consistent Calculation

     iteration #  1     ecut=    80.00 Ry     beta= 0.70
     Davidson diagonalization with overlap

---- Real-time Memory Report at c_bands before calling an iterative solver
          1891 MiB given to the printing process from OS
             0 MiB allocation reported by mallinfo(arena+hblkhd)
          6453 MiB available memory on the node where the printing process lives
------------------
     ethr =  2.36E-10,  avg # of iterations =  2.0

     total cpu time spent up to now is     3623.7 secs

     End of self-consistent calculation

          k = 0.0000 0.0000 0.0000 (  3287 PWs)   bands (ev):

   -40.5961 -24.0350 -23.2577 -18.3107 -18.3107 -18.3107  -2.6925  -2.6925
    -2.6925  -0.7054  -0.7054  -0.7054  12.0611  15.1169  15.1169  17.6018
    17.6018  17.6018  22.1178  22.1178

     occupation numbers 
     1.0000   1.0000   1.0000   1.0000   1.0000   1.0000   1.0000   1.0000
     1.0000   1.0000   1.0000   1.0000   0.0000   0.0000   0.0000   0.0000
     0.0000   0.0000   0.0000   0.0000

          k =-0.1667 0.1667-0.1667 (  3329 PWs)   bands (ev):

   -40.5869 -24.0548 -23.3261 -18.3239 -18.3239 -18.2422  -2.5608  -2.5608
    -2.4624  -1.0082  -0.8352  -0.8352  12.7698  15.1688  15.1688  17.3049
    17.5215  17.5215  20.9885  22.7846

     occupation numbers 
     1.0000   1.0000   1.0000   1.0000   1.0000   1.0000   1.0000   1.0000
     1.0000   1.0000   1.0000   1.0000   0.0000   0.0000   0.0000   0.0000
     0.0000   0.0000   0.0000   0.0000

          k =-0.3333 0.3333-0.3333 (  3305 PWs)   bands (ev):

   -40.5686 -24.0402 -23.5247 -18.3500 -18.3500 -18.0893  -2.2461  -2.2461
    -2.0174  -1.5361  -1.1385  -1.1385  14.2143  15.2837  15.2837  16.8235
    17.3621  17.3621  19.5485  24.3954

     occupation numbers 
     1.0000   1.0000   1.0000   1.0000   1.0000   1.0000   1.0000   1.0000
     1.0000   1.0000   1.0000   1.0000   0.0000   0.0000   0.0000   0.0000
     0.0000   0.0000   0.0000   0.0000

          k = 0.5000-0.5000 0.5000 (  3316 PWs)   bands (ev):

   -40.5594 -23.9731 -23.6869 -18.3629 -18.3629 -18.0059  -2.0210  -2.0210
    -1.8287  -1.7453  -1.3542  -1.3542  15.3460  15.3460  15.6190  15.6959
    17.2821  17.2821  19.3981  25.5192

     occupation numbers 
     1.0000   1.0000   1.0000   1.0000   1.0000   1.0000   1.0000   1.0000
     1.0000   1.0000   1.0000   1.0000   0.0000   0.0000   0.0000   0.0000
     0.0000   0.0000   0.0000   0.0000

          k = 0.0000 0.3333 0.0000 (  3327 PWs)   bands (ev):

   -40.5839 -24.0701 -23.3367 -18.3429 -18.3429 -18.1932  -2.6089  -2.6089
    -2.1838  -1.4580  -0.6936  -0.6936  12.9973  14.9573  15.3793  17.1705
    17.4796  17.4796  21.7258  22.4270

     occupation numbers 
     1.0000   1.0000   1.0000   1.0000   1.0000   1.0000   1.0000   1.0000
     1.0000   1.0000   1.0000   1.0000   0.0000   0.0000   0.0000   0.0000
     0.0000   0.0000   0.0000   0.0000

          k =-0.1667 0.5000-0.1667 (  3328 PWs)   bands (ev):

   -40.5686 -24.0773 -23.4785 -18.3719 -18.3380 -18.0891  -2.4330  -2.4241
    -2.0619  -1.6305  -0.8536  -0.8284  13.9380  15.1362  15.5761  16.6653
    17.3535  17.4560  20.5801  23.2144

     occupation numbers 
     1.0000   1.0000   1.0000   1.0000   1.0000   1.0000   1.0000   1.0000
     1.0000   1.0000   1.0000   1.0000   0.0000   0.0000   0.0000   0.0000
     0.0000   0.0000   0.0000   0.0000

          k = 0.6667-0.3333 0.6667 (  3321 PWs)   bands (ev):

   -40.5563 -23.9803 -23.7062 -18.3819 -18.2956 -18.0401  -2.4440  -2.2154
    -2.1095  -1.2168  -1.1809  -1.0345  14.3390  15.5594  15.7618  16.3461
    17.2596  17.7102  19.7116  24.2885

     occupation numbers 
     1.0000   1.0000   1.0000   1.0000   1.0000   1.0000   1.0000   1.0000
     1.0000   1.0000   1.0000   1.0000   0.0000   0.0000   0.0000   0.0000
     0.0000   0.0000   0.0000   0.0000

          k = 0.5000-0.1667 0.5000 (  3334 PWs)   bands (ev):

   -40.5594 -23.9922 -23.6659 -18.3631 -18.2838 -18.0870  -2.5438  -2.0289
    -1.8795  -1.5052  -1.4872  -0.7872  14.3016  15.3488  15.6799  16.5133
    17.2947  17.6854  19.8796  23.0347

     occupation numbers 
     1.0000   1.0000   1.0000   1.0000   1.0000   1.0000   1.0000   1.0000
     1.0000   1.0000   1.0000   1.0000   0.0000   0.0000   0.0000   0.0000
     0.0000   0.0000   0.0000   0.0000

          k = 0.3333 0.0000 0.3333 (  3325 PWs)   bands (ev):

   -40.5747 -24.0614 -23.4398 -18.3341 -18.3206 -18.1720  -2.6045  -2.2529
    -2.0217  -1.5385  -1.1874  -0.6751  13.6253  15.1558  15.3313  16.9150
    17.4296  17.4853  20.6570  22.3606

     occupation numbers 
     1.0000   1.0000   1.0000   1.0000   1.0000   1.0000   1.0000   1.0000
     1.0000   1.0000   1.0000   1.0000   0.0000   0.0000   0.0000   0.0000
     0.0000   0.0000   0.0000   0.0000

          k = 0.0000 0.6667 0.0000 (  3347 PWs)   bands (ev):

   -40.5595 -24.1365 -23.4901 -18.4068 -18.4068 -17.9534  -2.7482  -2.3884
    -2.3884  -1.0619  -0.7349  -0.7349  13.7950  15.9303  15.9753  16.1329
    17.2933  17.2933  22.0757  22.9407

     occupation numbers 
     1.0000   1.0000   1.0000   1.0000   1.0000   1.0000   1.0000   1.0000
     1.0000   1.0000   1.0000   1.0000   0.0000   0.0000   0.0000   0.0000
     0.0000   0.0000   0.0000   0.0000

          k = 0.8333-0.1667 0.8333 (  3314 PWs)   bands (ev):

   -40.5503 -24.0944 -23.6282 -18.4198 -18.3603 -17.9258  -3.0498  -2.3017
    -2.2089  -0.9136  -0.8397  -0.6412  13.7172  15.7489  16.0425  16.5392
    17.2302  18.3496  21.0249  22.0295

     occupation numbers 
     1.0000   1.0000   1.0000   1.0000   1.0000   1.0000   1.0000   1.0000
     1.0000   1.0000   1.0000   1.0000   0.0000   0.0000   0.0000   0.0000
     0.0000   0.0000   0.0000   0.0000

          k = 0.6667-0.0000 0.6667 (  3318 PWs)   bands (ev):

   -40.5503 -23.9054 -23.8389 -18.3981 -18.2192 -18.0661  -2.8849  -2.3011
    -1.9431  -1.3087  -1.0131  -0.5892  13.9307  15.7084  15.7985  16.3341
    17.2230  19.1081  20.7840  20.9091

     occupation numbers 
     1.0000   1.0000   1.0000   1.0000   1.0000   1.0000   1.0000   1.0000
     1.0000   1.0000   1.0000   1.0000   0.0000   0.0000   0.0000   0.0000
     0.0000   0.0000   0.0000   0.0000

          k = 0.0000-1.0000 0.0000 (  3306 PWs)   bands (ev):

   -40.5472 -24.1679 -23.5646 -18.4385 -18.4385 -17.8306  -3.3206  -2.2400
    -2.2400  -0.7997  -0.7997  -0.4305  13.4738  15.5087  16.3216  17.2244
    17.2244  18.5130  20.6024  22.4783

     occupation numbers 
     1.0000   1.0000   1.0000   1.0000   1.0000   1.0000   1.0000   1.0000
     1.0000   1.0000   1.0000   1.0000   0.0000   0.0000   0.0000   0.0000
     0.0000   0.0000   0.0000   0.0000

          k = 0.6667-0.3333 1.0000 (  3317 PWs)   bands (ev):

   -40.5564 -24.0415 -23.6363 -18.3979 -18.2845 -18.0445  -2.5702  -2.5453
    -2.0218  -1.2093  -1.0769  -0.6874  13.9904  15.6103  15.9484  16.1995
    17.2868  17.8991  20.8550  22.3145

     occupation numbers 
     1.0000   1.0000   1.0000   1.0000   1.0000   1.0000   1.0000   1.0000
     1.0000   1.0000   1.0000   1.0000   0.0000   0.0000   0.0000   0.0000
     0.0000   0.0000   0.0000   0.0000

          k = 0.5000-0.1667 0.8333 (  3314 PWs)   bands (ev):

   -40.5503 -23.9074 -23.8368 -18.4153 -18.1749 -18.0932  -2.7143  -2.6131
    -1.6801  -1.5218  -0.7799  -0.7319  13.9822  15.6941  15.9099  16.1464
    17.2474  18.9871  20.2284  22.6893

     occupation numbers 
     1.0000   1.0000   1.0000   1.0000   1.0000   1.0000   1.0000   1.0000
     1.0000   1.0000   1.0000   1.0000   0.0000   0.0000   0.0000   0.0000
     0.0000   0.0000   0.0000   0.0000

          k =-0.3333-1.0000 0.0000 (  3322 PWs)   bands (ev):

   -40.5472 -24.0303 -23.7302 -18.4406 -18.2703 -17.9679  -3.0737  -2.5058
    -1.9101  -1.1926  -0.7370  -0.4975  13.7382  15.6915  15.9746  16.3365
    17.2444  20.1583  20.3534  21.4133

     occupation numbers 
     1.0000   1.0000   1.0000   1.0000   1.0000   1.0000   1.0000   1.0000
     1.0000   1.0000   1.0000   1.0000   0.0000   0.0000   0.0000   0.0000
     0.0000   0.0000   0.0000   0.0000

     highest occupied, lowest unoccupied level (ev):    -0.4305   12.0611

!    total energy              =    -169.88867231 Ry
     estimated scf accuracy    <          6.0E-09 Ry

     convergence has been achieved in   1 iterations

     Using ACE for calculation of exact exchange
     ACE projected onto    20 (nbndproj) and applied to    20 (nbnd) bands

!!   total energy              =    -169.88867231 Ry
     Harris-Foulkes estimate   =    -169.88867232 Ry
     est. exchange err (dexx)  =          3.9E-09 Ry
     - averaged Fock potential =      27.35891590 Ry
     + Fock energy (ACE)       =     -13.67952844 Ry

     EXX self-consistency reached

     Writing all to output data dir ./out_fg/caf2fg.save/ :
     XML data file, charge density, pseudopotentials, collected wavefunctions

     init_run     :      0.23s CPU      0.23s WALL (       1 calls)
     electrons    :     10.00s CPU     10.51s WALL (       6 calls)

     Called by init_run:
     aceinit0     :      0.00s CPU      0.00s WALL (       1 calls)
     wfcinit      :      0.11s CPU      0.11s WALL (       1 calls)
     wfcinit:wfcr :      0.10s CPU      0.10s WALL (      16 calls)
     potinit      :      0.01s CPU      0.01s WALL (       1 calls)
     hinit0       :      0.09s CPU      0.09s WALL (       1 calls)

     Called by electrons:
     c_bands      :      8.40s CPU      8.82s WALL (      27 calls)
     sum_band     :      1.30s CPU      1.36s WALL (      27 calls)
     v_of_rho     :      0.30s CPU      0.31s WALL (      28 calls)
     v_h          :      0.01s CPU      0.01s WALL (      28 calls)
     v_xc         :      0.29s CPU      0.31s WALL (      28 calls)
     mix_rho      :      0.01s CPU      0.01s WALL (      27 calls)

     Called by c_bands:
     init_us_2    :      0.13s CPU      0.13s WALL (     880 calls)
     cegterg      :      8.16s CPU      8.57s WALL (     432 calls)

     Called by sum_band:
     sum_band:wei :      0.00s CPU      0.00s WALL (      27 calls)
     sum_band:loo :      1.28s CPU      1.34s WALL (      27 calls)
     sum_band:buf :      0.01s CPU      0.01s WALL (     432 calls)
     sum_band:ini :      0.06s CPU      0.07s WALL (     432 calls)

     Called by *egterg:
     cdiaghg      :      0.36s CPU      0.38s WALL (    1520 calls)
     cegterg:over :      0.22s CPU      0.23s WALL (    1184 calls)
     cegterg:upda :      0.10s CPU      0.10s WALL (    1184 calls)
     cegterg:last :      0.17s CPU      0.18s WALL (    1059 calls)
     h_psi        :      7.21s CPU      7.57s WALL (    1632 calls)
     g_psi        :      0.05s CPU      0.05s WALL (    1184 calls)

     Called by h_psi:
     h_psi:calbec :      0.18s CPU      0.19s WALL (    1632 calls)
     vloc_psi     :      6.76s CPU      7.10s WALL (    1632 calls)
                                        0.00s GPU  (    1632 calls)
     add_vuspsi   :      0.11s CPU      0.11s WALL (    1632 calls)

     General routines
     calbec       :      0.30s CPU      0.32s WALL (    3182 calls)
     fft          :      0.12s CPU      0.12s WALL (     273 calls)
     ffts         :      0.00s CPU      0.00s WALL (      27 calls)
     fftw         :      7.33s CPU      7.70s WALL (   58714 calls)
     fftc         :   3042.03s CPU   3288.74s WALL (16588800 calls)
     fftcw        :      0.66s CPU      0.89s WALL (    5760 calls)

     Parallel routines

     EXX routines
     exx_grid     :      0.01s CPU      0.01s WALL (       1 calls)
     exxinit      :      7.81s CPU     10.41s WALL (       6 calls)
     vexx         :   4062.59s CPU   4387.58s WALL (      96 calls)
     matcalc      :      0.13s CPU      0.14s WALL (    1550 calls)
     aceupdate    :      0.00s CPU      0.01s WALL (      96 calls)
     vexxace      :      0.18s CPU      0.19s WALL (    1278 calls)
     aceinit      :   4062.61s CPU   4387.61s WALL (      96 calls)

     PWSCF        :      1h 8m CPU      1h13m WALL


   This run was terminated on:   9:40:10  25Jun2026            

=------------------------------------------------------------------------------=
   JOB DONE.
=------------------------------------------------------------------------------=
