
     Program PWSCF v.7.5 starts on 26Jun2026 at  5:37: 7 

     This program is part of the open-source Quantum ESPRESSO suite
     for quantum simulation of materials; please cite
         "P. Giannozzi et al., J. Phys.:Condens. Matter 21 395502 (2009);
         "P. Giannozzi et al., J. Phys.:Condens. Matter 29 465901 (2017);
         "P. Giannozzi et al., J. Chem. Phys. 152 154105 (2020);
          URL http://www.quantum-espresso.org", 
     in publications or presentations arising from this work. More details at
     http://www.quantum-espresso.org/quote

     Parallel version (MPI & OpenMP), running on       4 processor cores
     Number of MPI processes:                 4
     Threads/MPI process:                     1

     MPI processes distributed on     1 nodes
     14242 MiB available memory on the printing compute node when the environment starts

     Reading input from alas.qc.in

     Current dimensions of program PWSCF are:
     Max number of different atomic species (ntypx) = 10
     Max number of k-points (npk) =  40000
     Max angular momentum in pseudopotentials (lmaxx) =  4

     IMPORTANT: XC functional enforced from input :
     Exchange-correlation= HSE
                           (   1   4  12   4   0   0   0)
     EXX-fraction              =        0.25
     Any further DFT definition will be discarded
     Please, verify this is what you really want

     EXX Screening parameter changed:    0.6054000
     EXX fraction changed:   1.00
     DD-RSH-CAM (LMODELHF) semilocal: AEXX, BEXX =   0.1246  0.1772
     DD-RSH-CAM (LMODELHF) enabled
     AEXX =  0.1246   BEXX =  0.1772   mu(bohr^-1) =  0.6054

     R & G space division:  proc/nbgrp/npool/nimage =       4
     Subspace diagonalization in iterative solution of the eigenvalue problem:
     a serial algorithm will be used

     EXX: q-point mesh:     6    6    6
     EXX: setup a grid of 216 q-points centered on each k-point
     (k+q)-points:
   0.0000000   0.0000000   0.0000000         1    1
  -0.1666667   0.1666667  -0.1666667         2    1
  -0.3333333   0.3333333  -0.3333333         3    1
   0.5000000  -0.5000000   0.5000000         4    1
   0.3333333  -0.3333333   0.3333333         3   -1
   0.1666667  -0.1666667   0.1666667         2   -1
   0.1666667   0.1666667   0.1666667         2    3
   0.0000000   0.3333333   0.0000000         5    1
  -0.1666667   0.5000000  -0.1666667         6    1
   0.6666667  -0.3333333   0.6666667         7    1
   0.5000000  -0.1666667   0.5000000         8    1
   0.3333333   0.0000000   0.3333333         9    1
   0.3333333   0.3333333   0.3333333         3    3
   0.1666667   0.5000000   0.1666667         6    3
   0.0000000   0.6666667   0.0000000        10    1
   0.8333333  -0.1666667   0.8333333        11    1
   0.6666667   0.0000000   0.6666667        12    1
   0.5000000   0.1666667   0.5000000         8   -3
  -0.5000000  -0.5000000  -0.5000000         4    3
  -0.6666667  -0.3333333  -0.6666667         7    3
  -0.8333333  -0.1666667  -0.8333333        11    3
   0.0000000  -1.0000000   0.0000000        13    1
   0.8333333   0.1666667   0.8333333        11   -3
   0.6666667   0.3333333   0.6666667         7   -3
  -0.3333333  -0.3333333  -0.3333333         3   -3
  -0.5000000  -0.1666667  -0.5000000         8    3
  -0.6666667   0.0000000  -0.6666667        12   -1
  -0.8333333   0.1666667  -0.8333333        11   -1
   0.0000000  -0.6666667   0.0000000        10   -1
  -0.1666667  -0.5000000  -0.1666667         6   -3
  -0.1666667  -0.1666667  -0.1666667         2   -3
  -0.3333333   0.0000000  -0.3333333         9   -1
  -0.5000000   0.1666667  -0.5000000         8   -1
  -0.6666667   0.3333333  -0.6666667         7   -1
   0.1666667  -0.5000000   0.1666667         6   -1
   0.0000000  -0.3333333   0.0000000         5   -1
  -0.1666667  -0.1666667   0.1666667         2    4
  -0.3333333   0.0000000   0.0000000         5   -9
  -0.5000000   0.1666667  -0.1666667         6   10
   0.3333333  -0.6666667   0.6666667         7   10
   0.1666667  -0.5000000   0.5000000         8   10
   0.0000000  -0.3333333   0.3333333         9   10
   0.0000000   0.0000000   0.3333333         5    5
  -0.1666667   0.1666667   0.1666667         2   -2
  -0.3333333   0.3333333   0.0000000         9    7
  -0.5000000   0.5000000  -0.1666667         8   -8
  -0.6666667   0.6666667  -0.3333333         7   -8
   0.1666667  -0.1666667   0.5000000         6   -8
   0.1666667   0.1666667   0.5000000         6    6
   0.0000000   0.3333333   0.3333333         9    9
  -0.1666667   0.5000000   0.1666667         6   -2
   0.6666667  -0.3333333   1.0000000        14    1
   0.5000000  -0.1666667   0.8333333        15    1
  -0.6666667   1.0000000  -0.3333333        14  -21
  -0.6666667  -0.6666667  -0.3333333         7    6
   0.1666667   0.5000000   0.5000000         8  -12
  -1.0000000  -0.3333333  -0.6666667        14   17
   0.8333333  -0.1666667  -0.8333333        11   -2
  -0.3333333  -1.0000000   0.0000000        16    1
   0.5000000   0.1666667   0.8333333        15   -3
  -0.5000000  -0.5000000  -0.1666667         8    6
   0.3333333   0.6666667   0.6666667         7  -12
   0.1666667   0.8333333   0.5000000        15  -12
   0.0000000  -1.0000000   0.3333333        16   17
   0.8333333   0.1666667  -0.8333333        11    4
   0.6666667   0.3333333   1.0000000        14   -3
  -0.3333333  -0.3333333   0.0000000         9   -5
  -0.5000000  -0.1666667  -0.1666667         6  -12
   0.3333333  -1.0000000   0.6666667        14   10
   0.1666667  -0.8333333   0.5000000        15   10
  -1.0000000   0.3333333  -0.6666667        14  -18
  -0.1666667  -0.5000000   0.1666667         6    4
  -0.3333333  -0.3333333   0.3333333         3    4
  -0.5000000  -0.1666667   0.1666667         6   11
  -0.6666667   0.0000000   0.0000000        10   -9
   0.1666667  -0.8333333   0.8333333        11   10
   0.0000000  -0.6666667   0.6666667        12   10
  -0.1666667  -0.5000000   0.5000000         8  -11
  -0.1666667  -0.1666667   0.5000000         6    5
  -0.3333333   0.0000000   0.3333333         9    2
  -0.5000000   0.1666667   0.1666667         6   -9
   0.3333333  -0.6666667   1.0000000        14   13
  -0.8333333   0.5000000  -0.1666667        15   -8
   1.0000000   0.6666667  -0.3333333        14    5
   0.0000000   0.0000000   0.6666667        10    5
  -0.1666667   0.1666667   0.5000000         6   -7
  -0.3333333   0.3333333   0.3333333         3   -2
  -0.5000000   0.5000000   0.1666667         8    7
  -0.6666667   0.6666667   0.0000000        12    7
  -0.8333333   0.8333333  -0.1666667        11   -8
  -0.8333333  -0.8333333  -0.1666667        11    6
  -1.0000000  -0.6666667  -0.3333333        14    6
  -0.1666667   0.5000000   0.5000000         8    9
   0.6666667  -0.3333333  -0.6666667         7   -2
   0.5000000  -0.1666667  -0.8333333        15   -2
   0.3333333   0.0000000  -1.0000000        16  -21
  -0.6666667  -0.6666667   0.0000000        12   -5
  -0.8333333  -0.5000000  -0.1666667        15    6
   0.0000000   0.6666667   0.6666667        12    9
  -0.1666667   0.8333333   0.5000000        15    9
   0.6666667   0.0000000  -0.6666667        12   -2
   0.5000000   0.1666667  -0.8333333        15    4
  -0.5000000  -0.5000000   0.1666667         8   -5
   0.3333333   0.6666667   1.0000000        14  -15
   0.1666667   0.8333333   0.8333333        11  -12
  -1.0000000   0.0000000  -0.3333333        16    9
  -0.1666667  -0.8333333   0.5000000        15  -11
   0.6666667   0.3333333  -0.6666667         7    4
   0.5000000   0.5000000  -0.5000000         4    4
   0.3333333   0.6666667  -0.6666667         7   11
   0.1666667   0.8333333  -0.8333333        11   11
  -1.0000000   0.0000000   0.0000000        13    9
  -0.1666667  -0.8333333   0.8333333        11  -11
  -0.3333333  -0.6666667   0.6666667         7  -11
   0.6666667   0.6666667  -0.3333333         7    5
  -0.5000000  -0.1666667   0.5000000         8   -4
   0.3333333  -1.0000000  -0.6666667        14   -9
   0.1666667  -0.8333333  -0.8333333        11   -9
   1.0000000   0.3333333   0.0000000        16   13
   0.8333333   0.5000000  -0.1666667        15    5
   0.8333333   0.8333333  -0.1666667        11    5
   0.6666667   1.0000000  -0.3333333        14   22
  -0.5000000   0.1666667   0.5000000         8    2
   0.3333333  -0.6666667  -0.6666667         7   -9
  -0.8333333   0.5000000   0.1666667        15    7
   0.0000000  -0.3333333  -1.0000000        16    5
   0.0000000   0.0000000  -1.0000000        13    5
   0.8333333  -0.8333333  -0.1666667        11   -7
   0.6666667  -0.6666667  -0.3333333         7   -7
  -0.5000000   0.5000000   0.5000000         4    2
  -0.6666667   0.6666667   0.3333333         7    7
  -0.8333333   0.8333333   0.1666667        11    7
  -0.8333333  -0.8333333   0.1666667        11   -5
   0.0000000   0.3333333   1.0000000        16   -5
   0.8333333  -0.5000000  -0.1666667        15   -7
  -0.3333333   0.6666667   0.6666667         7    9
   0.5000000  -0.1666667  -0.5000000         8   -2
  -0.6666667  -1.0000000   0.3333333        14  -22
  -0.6666667  -0.6666667   0.3333333         7   -5
  -0.8333333  -0.5000000   0.1666667        15   -5
  -1.0000000  -0.3333333   0.0000000        16  -13
  -0.1666667   0.8333333   0.8333333        11    9
  -0.3333333   1.0000000   0.6666667        14    9
   0.5000000   0.1666667  -0.5000000         8    4
   0.3333333   0.3333333  -0.3333333         3   -4
   0.1666667   0.5000000  -0.5000000         8   11
   0.0000000   0.6666667  -0.6666667        12  -10
  -0.1666667   0.8333333  -0.8333333        11  -10
   0.6666667   0.0000000   0.0000000        10    9
   0.5000000   0.1666667  -0.1666667         6  -11
   0.5000000   0.5000000  -0.1666667         8    5
  -0.6666667  -0.3333333   0.6666667         7   -4
   0.1666667   0.8333333  -0.5000000        15   11
   1.0000000   0.0000000   0.3333333        16   -9
  -0.1666667  -0.8333333  -0.8333333        11   12
  -0.3333333  -0.6666667  -1.0000000        14   15
   0.6666667   0.6666667   0.0000000        12    5
  -0.5000000  -0.1666667   0.8333333        15   -4
  -0.6666667   0.0000000   0.6666667        12    2
   0.1666667  -0.8333333  -0.5000000        15   -9
   0.0000000  -0.6666667  -0.6666667        12   -9
   0.8333333   0.5000000   0.1666667        15   -6
   0.8333333   0.8333333   0.1666667        11   -6
  -0.3333333   0.0000000   1.0000000        16   21
  -0.5000000   0.1666667   0.8333333        15    2
  -0.6666667   0.3333333   0.6666667         7    2
   0.1666667  -0.5000000  -0.5000000         8   -9
   1.0000000   0.6666667   0.3333333        14   -6
   0.0000000   0.0000000  -0.6666667        10   -5
   0.8333333  -0.8333333   0.1666667        11    8
   0.6666667  -0.6666667   0.0000000        12   -7
   0.5000000  -0.5000000  -0.1666667         8   -7
   0.3333333  -0.3333333  -0.3333333         3    2
   0.1666667  -0.1666667  -0.5000000         6    7
   0.1666667   0.1666667  -0.5000000         6   -5
  -1.0000000  -0.6666667   0.3333333        14   -5
   0.8333333  -0.5000000   0.1666667        15    8
  -0.3333333   0.6666667  -1.0000000        14  -13
   0.5000000  -0.1666667  -0.1666667         6    9
   0.3333333   0.0000000  -0.3333333         9   -2
   0.1666667   0.1666667  -0.1666667         2   -4
   0.0000000   0.3333333  -0.3333333         9  -10
  -0.1666667   0.5000000  -0.5000000         8  -10
  -0.3333333   0.6666667  -0.6666667         7  -10
   0.5000000  -0.1666667   0.1666667         6  -10
   0.3333333   0.0000000   0.0000000         5    9
   0.3333333   0.3333333   0.0000000         9    5
   0.1666667   0.5000000  -0.1666667         6   -4
   1.0000000  -0.3333333   0.6666667        14   18
  -0.1666667   0.8333333  -0.5000000        15  -10
  -0.3333333   1.0000000  -0.6666667        14  -10
   0.5000000   0.1666667   0.1666667         6   12
   0.5000000   0.5000000   0.1666667         8   -6
  -0.6666667  -0.3333333  -1.0000000        14    3
  -0.8333333  -0.1666667   0.8333333        11   -4
   0.0000000   1.0000000  -0.3333333        16  -17
  -0.1666667  -0.8333333  -0.5000000        15   12
  -0.3333333  -0.6666667  -0.6666667         7   12
   0.6666667   0.6666667   0.3333333         7   -6
  -0.5000000  -0.1666667  -0.8333333        15    3
   0.3333333   1.0000000   0.0000000        16   -1
  -0.8333333   0.1666667   0.8333333        11    2
   1.0000000   0.3333333   0.6666667        14  -17
  -0.1666667  -0.5000000  -0.5000000         8   12
  -0.1666667  -0.1666667  -0.5000000         6   -6
   0.6666667  -1.0000000   0.3333333        14   21
  -0.5000000   0.1666667  -0.8333333        15   -1
  -0.6666667   0.3333333  -1.0000000        14   -1
   0.1666667  -0.5000000  -0.1666667         6    2
   0.0000000  -0.3333333  -0.3333333         9   -9
   0.0000000   0.0000000  -0.3333333         5   -5
  -0.1666667   0.1666667  -0.5000000         6    8
   0.6666667  -0.6666667   0.3333333         7    8
   0.5000000  -0.5000000   0.1666667         8    8
   0.3333333  -0.3333333   0.0000000         9   -7
   0.1666667  -0.1666667  -0.1666667         2    2

     Parallelization info
     --------------------
     sticks:   dense  smooth     PW     G-vecs:    dense   smooth      PW
     Min         238     238     70                 4798     4798     784
     Max         239     239     71                 4799     4799     787
     Sum         955     955    283                19195    19195    3143

     Using Slab Decomposition



     bravais-lattice index     =            2
     lattice parameter (alat)  =      10.6960  a.u.
     unit-cell volume          =     305.9174 (a.u.)^3
     number of atoms/cell      =            2
     number of atomic types    =            2
     number of electrons       =        16.00
     number of Kohn-Sham states=           16
     kinetic-energy cutoff     =      60.0000  Ry
     charge density cutoff     =     240.0000  Ry
     cutoff for Fock operator  =     240.0000  Ry
     scf convergence threshold =      1.0E-08
     mixing beta               =       0.7000
     number of iterations used =            8  plain     mixing
     Exchange-correlation= HSE
                           (   1   4  12   4   0   0   0)
     EXX-fraction              =        1.00

     celldm(1)=  10.696000  celldm(2)=   0.000000  celldm(3)=   0.000000
     celldm(4)=   0.000000  celldm(5)=   0.000000  celldm(6)=   0.000000

     crystal axes: (cart. coord. in units of alat)
               a(1) = (  -0.500000   0.000000   0.500000 )  
               a(2) = (   0.000000   0.500000   0.500000 )  
               a(3) = (  -0.500000   0.500000   0.000000 )  

     reciprocal axes: (cart. coord. in units 2 pi/alat)
               b(1) = ( -1.000000 -1.000000  1.000000 )  
               b(2) = (  1.000000  1.000000  1.000000 )  
               b(3) = ( -1.000000  1.000000 -1.000000 )  


     PseudoPot. # 1 for Al read from file:
     ../../../../pseudos/Al_ONCV_PBE-1.2.upf
     MD5 check sum: 2d9e7bc02555220d62fad08c3c4858e7
     Pseudo is Norm-conserving, Zval = 11.0
     Generated using ONCVPSP code by D. R. Hamann
     Using radial grid of  602 points,  4 beta functions with: 
                l(1) =   0
                l(2) =   0
                l(3) =   1
                l(4) =   1

     PseudoPot. # 2 for As read from file:
     ../../../../pseudos/As_ONCV_PBE-1.2.upf
     MD5 check sum: a2ff92a4799c87c945fff9e6739df4dd
     Pseudo is Norm-conserving, Zval =  5.0
     Generated using ONCVPSP code by D. R. Hamann
     Using radial grid of  602 points,  6 beta functions with: 
                l(1) =   0
                l(2) =   0
                l(3) =   1
                l(4) =   1
                l(5) =   2
                l(6) =   2

     atomic species   valence    mass     pseudopotential
     Al               11.00    26.98200     Al( 1.00)
     As                5.00    74.92200     As( 1.00)

     24 Sym. Ops. (no inversion) found


                                    s                        frac. trans.

      isym =  1     identity                                     

 cryst.   s( 1) = (     1          0          0      )
                  (     0          1          0      )
                  (     0          0          1      )

 cart.    s( 1) = (  1.0000000  0.0000000  0.0000000 )
                  (  0.0000000  1.0000000  0.0000000 )
                  (  0.0000000  0.0000000  1.0000000 )


      isym =  2     180 deg rotation - cart. axis [0,0,1]        

 cryst.   s( 2) = (     0          1         -1      )
                  (     1          0         -1      )
                  (     0          0         -1      )

 cart.    s( 2) = ( -1.0000000  0.0000000  0.0000000 )
                  (  0.0000000 -1.0000000  0.0000000 )
                  (  0.0000000  0.0000000  1.0000000 )


      isym =  3     180 deg rotation - cart. axis [0,1,0]        

 cryst.   s( 3) = (    -1          0          0      )
                  (    -1          0          1      )
                  (    -1          1          0      )

 cart.    s( 3) = ( -1.0000000  0.0000000  0.0000000 )
                  (  0.0000000  1.0000000  0.0000000 )
                  (  0.0000000  0.0000000 -1.0000000 )


      isym =  4     180 deg rotation - cart. axis [1,0,0]        

 cryst.   s( 4) = (     0         -1          1      )
                  (     0         -1          0      )
                  (     1         -1          0      )

 cart.    s( 4) = (  1.0000000  0.0000000  0.0000000 )
                  (  0.0000000 -1.0000000  0.0000000 )
                  (  0.0000000  0.0000000 -1.0000000 )


      isym =  5     120 deg rotation - cart. axis [-1,-1,-1]     

 cryst.   s( 5) = (    -1          0          1      )
                  (    -1          1          0      )
                  (    -1          0          0      )

 cart.    s( 5) = (  0.0000000  1.0000000  0.0000000 )
                  (  0.0000000  0.0000000  1.0000000 )
                  (  1.0000000  0.0000000  0.0000000 )


      isym =  6     120 deg rotation - cart. axis [-1,1,1]       

 cryst.   s( 6) = (     0          1          0      )
                  (     0          0          1      )
                  (     1          0          0      )

 cart.    s( 6) = (  0.0000000 -1.0000000  0.0000000 )
                  (  0.0000000  0.0000000  1.0000000 )
                  ( -1.0000000  0.0000000  0.0000000 )


      isym =  7     120 deg rotation - cart. axis [1,1,-1]       

 cryst.   s( 7) = (     1          0         -1      )
                  (     0          0         -1      )
                  (     0          1         -1      )

 cart.    s( 7) = (  0.0000000  1.0000000  0.0000000 )
                  (  0.0000000  0.0000000 -1.0000000 )
                  ( -1.0000000  0.0000000  0.0000000 )


      isym =  8     120 deg rotation - cart. axis [1,-1,1]       

 cryst.   s( 8) = (     0         -1          0      )
                  (     1         -1          0      )
                  (     0         -1          1      )

 cart.    s( 8) = (  0.0000000 -1.0000000  0.0000000 )
                  (  0.0000000  0.0000000 -1.0000000 )
                  (  1.0000000  0.0000000  0.0000000 )


      isym =  9     120 deg rotation - cart. axis [1,1,1]        

 cryst.   s( 9) = (     0          0         -1      )
                  (     0          1         -1      )
                  (     1          0         -1      )

 cart.    s( 9) = (  0.0000000  0.0000000  1.0000000 )
                  (  1.0000000  0.0000000  0.0000000 )
                  (  0.0000000  1.0000000  0.0000000 )


      isym = 10     120 deg rotation - cart. axis [-1,1,-1]      

 cryst.   s(10) = (    -1          1          0      )
                  (    -1          0          0      )
                  (    -1          0          1      )

 cart.    s(10) = (  0.0000000  0.0000000  1.0000000 )
                  ( -1.0000000  0.0000000  0.0000000 )
                  (  0.0000000 -1.0000000  0.0000000 )


      isym = 11     120 deg rotation - cart. axis [1,-1,-1]      

 cryst.   s(11) = (     0          0          1      )
                  (     1          0          0      )
                  (     0          1          0      )

 cart.    s(11) = (  0.0000000  0.0000000 -1.0000000 )
                  ( -1.0000000  0.0000000  0.0000000 )
                  (  0.0000000  1.0000000  0.0000000 )


      isym = 12     120 deg rotation - cart. axis [-1,-1,1]      

 cryst.   s(12) = (     1         -1          0      )
                  (     0         -1          1      )
                  (     0         -1          0      )

 cart.    s(12) = (  0.0000000  0.0000000 -1.0000000 )
                  (  1.0000000  0.0000000  0.0000000 )
                  (  0.0000000 -1.0000000  0.0000000 )


      isym = 13     inv. 180 deg rotation - cart. axis [1,1,0]   

 cryst.   s(13) = (     0          1          0      )
                  (     1          0          0      )
                  (     0          0          1      )

 cart.    s(13) = (  0.0000000 -1.0000000  0.0000000 )
                  ( -1.0000000  0.0000000  0.0000000 )
                  (  0.0000000  0.0000000  1.0000000 )


      isym = 14     inv. 180 deg rotation - cart. axis [1,-1,0]  

 cryst.   s(14) = (     1          0         -1      )
                  (     0          1         -1      )
                  (     0          0         -1      )

 cart.    s(14) = (  0.0000000  1.0000000  0.0000000 )
                  (  1.0000000  0.0000000  0.0000000 )
                  (  0.0000000  0.0000000  1.0000000 )


      isym = 15     inv.  90 deg rotation - cart. axis [0,0,-1]  

 cryst.   s(15) = (     0         -1          0      )
                  (     0         -1          1      )
                  (     1         -1          0      )

 cart.    s(15) = (  0.0000000 -1.0000000  0.0000000 )
                  (  1.0000000  0.0000000  0.0000000 )
                  (  0.0000000  0.0000000 -1.0000000 )


      isym = 16     inv.  90 deg rotation - cart. axis [0,0,1]   

 cryst.   s(16) = (    -1          0          1      )
                  (    -1          0          0      )
                  (    -1          1          0      )

 cart.    s(16) = (  0.0000000  1.0000000  0.0000000 )
                  ( -1.0000000  0.0000000  0.0000000 )
                  (  0.0000000  0.0000000 -1.0000000 )


      isym = 17     inv. 180 deg rotation - cart. axis [1,0,1]   

 cryst.   s(17) = (     1          0          0      )
                  (     0          0          1      )
                  (     0          1          0      )

 cart.    s(17) = (  0.0000000  0.0000000 -1.0000000 )
                  (  0.0000000  1.0000000  0.0000000 )
                  ( -1.0000000  0.0000000  0.0000000 )


      isym = 18     inv. 180 deg rotation - cart. axis [-1,0,1]  

 cryst.   s(18) = (    -1          0          0      )
                  (    -1          1          0      )
                  (    -1          0          1      )

 cart.    s(18) = (  0.0000000  0.0000000  1.0000000 )
                  (  0.0000000  1.0000000  0.0000000 )
                  (  1.0000000  0.0000000  0.0000000 )


      isym = 19     inv.  90 deg rotation - cart. axis [0,1,0]   

 cryst.   s(19) = (     0         -1          1      )
                  (     1         -1          0      )
                  (     0         -1          0      )

 cart.    s(19) = (  0.0000000  0.0000000 -1.0000000 )
                  (  0.0000000 -1.0000000  0.0000000 )
                  (  1.0000000  0.0000000  0.0000000 )


      isym = 20     inv.  90 deg rotation - cart. axis [0,-1,0]  

 cryst.   s(20) = (     0          1         -1      )
                  (     0          0         -1      )
                  (     1          0         -1      )

 cart.    s(20) = (  0.0000000  0.0000000  1.0000000 )
                  (  0.0000000 -1.0000000  0.0000000 )
                  ( -1.0000000  0.0000000  0.0000000 )


      isym = 21     inv. 180 deg rotation - cart. axis [0,1,1]   

 cryst.   s(21) = (     1         -1          0      )
                  (     0         -1          0      )
                  (     0         -1          1      )

 cart.    s(21) = (  1.0000000  0.0000000  0.0000000 )
                  (  0.0000000  0.0000000 -1.0000000 )
                  (  0.0000000 -1.0000000  0.0000000 )


      isym = 22     inv. 180 deg rotation - cart. axis [0,1,-1]  

 cryst.   s(22) = (     0          0          1      )
                  (     0          1          0      )
                  (     1          0          0      )

 cart.    s(22) = (  1.0000000  0.0000000  0.0000000 )
                  (  0.0000000  0.0000000  1.0000000 )
                  (  0.0000000  1.0000000  0.0000000 )


      isym = 23     inv.  90 deg rotation - cart. axis [-1,0,0]  

 cryst.   s(23) = (     0          0         -1      )
                  (     1          0         -1      )
                  (     0          1         -1      )

 cart.    s(23) = ( -1.0000000  0.0000000  0.0000000 )
                  (  0.0000000  0.0000000 -1.0000000 )
                  (  0.0000000  1.0000000  0.0000000 )


      isym = 24     inv.  90 deg rotation - cart. axis [1,0,0]   

 cryst.   s(24) = (    -1          1          0      )
                  (    -1          0          1      )
                  (    -1          0          0      )

 cart.    s(24) = ( -1.0000000  0.0000000  0.0000000 )
                  (  0.0000000  0.0000000  1.0000000 )
                  (  0.0000000 -1.0000000  0.0000000 )


     point group T_d (-43m) 
     there are  5 classes
     the character table:

       E     8C3   3C2   6S4   6s_d 
A_1    1.00  1.00  1.00  1.00  1.00
A_2    1.00  1.00  1.00 -1.00 -1.00
E      2.00 -1.00  2.00  0.00  0.00
T_1    3.00  0.00 -1.00  1.00 -1.00
T_2    3.00  0.00 -1.00 -1.00  1.00

     the symmetry operations in each class and the name of the first element:

     E        1
          identity                                               
     8C3      5    7    8    6   12    9   10   11
          120 deg rotation - cart. axis [-1,-1,-1]               
     3C2      2    3    4
          180 deg rotation - cart. axis [0,0,1]                  
     6S4     15   16   20   19   23   24
          inv.  90 deg rotation - cart. axis [0,0,-1]            
     6s_d    13   14   17   18   21   22
          inv. 180 deg rotation - cart. axis [1,1,0]             

   Cartesian axes

     site n.     atom                  positions (alat units)
         1        Al     tau(   1) = (   0.0000000   0.0000000   0.0000000  )
         2        As     tau(   2) = (  -0.2500000   0.2500000   0.2500000  )

   Crystallographic axes

     site n.     atom                  positions (cryst. coord.)
         1        Al     tau(   1) = (  0.0000000  0.0000000  0.0000000  )
         2        As     tau(   2) = (  0.2500000  0.2500000  0.2500000  )

     number of k points=    16
                       cart. coord. in units 2pi/alat
        k(    1) = (   0.0000000   0.0000000   0.0000000), wk =   0.0092593
        k(    2) = (  -0.1666667   0.1666667  -0.1666667), wk =   0.0740741
        k(    3) = (  -0.3333333   0.3333333  -0.3333333), wk =   0.0740741
        k(    4) = (   0.5000000  -0.5000000   0.5000000), wk =   0.0370370
        k(    5) = (   0.0000000   0.3333333   0.0000000), wk =   0.0555556
        k(    6) = (  -0.1666667   0.5000000  -0.1666667), wk =   0.2222222
        k(    7) = (   0.6666667  -0.3333333   0.6666667), wk =   0.2222222
        k(    8) = (   0.5000000  -0.1666667   0.5000000), wk =   0.2222222
        k(    9) = (   0.3333333   0.0000000   0.3333333), wk =   0.1111111
        k(   10) = (   0.0000000   0.6666667   0.0000000), wk =   0.0555556
        k(   11) = (   0.8333333  -0.1666667   0.8333333), wk =   0.2222222
        k(   12) = (   0.6666667  -0.0000000   0.6666667), wk =   0.1111111
        k(   13) = (   0.0000000  -1.0000000   0.0000000), wk =   0.0277778
        k(   14) = (   0.6666667  -0.3333333   1.0000000), wk =   0.2222222
        k(   15) = (   0.5000000  -0.1666667   0.8333333), wk =   0.2222222
        k(   16) = (  -0.3333333  -1.0000000   0.0000000), wk =   0.1111111

                       cryst. coord.
        k(    1) = (   0.0000000   0.0000000   0.0000000), wk =   0.0092593
        k(    2) = (   0.0000000   0.0000000   0.1666667), wk =   0.0740741
        k(    3) = (   0.0000000   0.0000000   0.3333333), wk =   0.0740741
        k(    4) = (   0.0000000   0.0000000  -0.5000000), wk =   0.0370370
        k(    5) = (   0.0000000   0.1666667   0.1666667), wk =   0.0555556
        k(    6) = (   0.0000000   0.1666667   0.3333333), wk =   0.2222222
        k(    7) = (   0.0000000   0.1666667  -0.5000000), wk =   0.2222222
        k(    8) = (   0.0000000   0.1666667  -0.3333333), wk =   0.2222222
        k(    9) = (   0.0000000   0.1666667  -0.1666667), wk =   0.1111111
        k(   10) = (   0.0000000   0.3333333   0.3333333), wk =   0.0555556
        k(   11) = (   0.0000000   0.3333333  -0.5000000), wk =   0.2222222
        k(   12) = (   0.0000000   0.3333333  -0.3333333), wk =   0.1111111
        k(   13) = (   0.0000000  -0.5000000  -0.5000000), wk =   0.0277778
        k(   14) = (   0.1666667   0.3333333  -0.5000000), wk =   0.2222222
        k(   15) = (   0.1666667   0.3333333  -0.3333333), wk =   0.2222222
        k(   16) = (   0.1666667  -0.5000000  -0.3333333), wk =   0.1111111

     Dense  grid:    19195 G-vectors     FFT dimensions: (  40,  40,  40)

     Dynamical RAM for                 wfc:       0.15 MB

     Dynamical RAM for     wfc (w. buffer):       2.49 MB

     Dynamical RAM for                 EXX:     510.22 MB

     Dynamical RAM for           str. fact:       0.15 MB

     Dynamical RAM for           local pot:       0.00 MB

     Dynamical RAM for          nlocal pot:       0.24 MB

     Dynamical RAM for                qrad:       2.72 MB

     Dynamical RAM for          rho,v,vnew:       0.59 MB

     Dynamical RAM for               rhoin:       0.20 MB

     Dynamical RAM for            rho*nmix:       1.17 MB

     Dynamical RAM for           G-vectors:       0.31 MB

     Dynamical RAM for          h,s,v(r/c):       0.05 MB

     Dynamical RAM for          <psi|beta>:       0.01 MB

     Dynamical RAM for                 psi:       0.29 MB

     Dynamical RAM for                hpsi:       0.29 MB

     Dynamical RAM for      wfcinit/wfcrot:       0.30 MB

     Estimated static dynamical RAM per process >     517.74 MB

     Estimated max dynamical RAM per process >     519.55 MB

     Estimated total dynamical RAM >       2.03 GB
     EXX: ACE will be initialized later

     Initial potential from superposition of free atoms

     starting charge      15.8865, renormalised to      16.0000
     Starting wfcs are random

     total cpu time spent up to now is        0.3 secs

     Self-consistent Calculation

     iteration #  1     ecut=    60.00 Ry     beta= 0.70
     Davidson diagonalization with overlap

---- Real-time Memory Report at c_bands before calling an iterative solver
            69 MiB given to the printing process from OS
             0 MiB allocation reported by mallinfo(arena+hblkhd)
         14199 MiB available memory on the node where the printing process lives
------------------
     ethr =  1.00E-02,  avg # of iterations =  7.6

     Threshold (ethr) on eigenvalues was too large:
     Diagonalizing with lowered threshold

     Davidson diagonalization with overlap

---- Real-time Memory Report at c_bands before calling an iterative solver
            70 MiB given to the printing process from OS
             0 MiB allocation reported by mallinfo(arena+hblkhd)
         14196 MiB available memory on the node where the printing process lives
------------------
     ethr =  5.42E-04,  avg # of iterations =  1.9

     total cpu time spent up to now is        0.8 secs

     total energy              =    -151.14247367 Ry
     estimated scf accuracy    <       0.08318034 Ry

     iteration #  2     ecut=    60.00 Ry     beta= 0.70
     Davidson diagonalization with overlap

---- Real-time Memory Report at c_bands before calling an iterative solver
            71 MiB given to the printing process from OS
             0 MiB allocation reported by mallinfo(arena+hblkhd)
         14189 MiB available memory on the node where the printing process lives
------------------
     ethr =  5.20E-04,  avg # of iterations =  2.2

     total cpu time spent up to now is        1.0 secs

     total energy              =    -151.15929471 Ry
     estimated scf accuracy    <       0.01258337 Ry

     iteration #  3     ecut=    60.00 Ry     beta= 0.70
     Davidson diagonalization with overlap

---- Real-time Memory Report at c_bands before calling an iterative solver
            72 MiB given to the printing process from OS
             0 MiB allocation reported by mallinfo(arena+hblkhd)
         14189 MiB available memory on the node where the printing process lives
------------------
     ethr =  7.86E-05,  avg # of iterations =  2.9

     total cpu time spent up to now is        1.1 secs

     total energy              =    -151.16151220 Ry
     estimated scf accuracy    <       0.00048951 Ry

     iteration #  4     ecut=    60.00 Ry     beta= 0.70
     Davidson diagonalization with overlap

---- Real-time Memory Report at c_bands before calling an iterative solver
            72 MiB given to the printing process from OS
             0 MiB allocation reported by mallinfo(arena+hblkhd)
         14187 MiB available memory on the node where the printing process lives
------------------
     ethr =  3.06E-06,  avg # of iterations =  4.3

     total cpu time spent up to now is        1.3 secs

     total energy              =    -151.16153519 Ry
     estimated scf accuracy    <       0.00000408 Ry

     iteration #  5     ecut=    60.00 Ry     beta= 0.70
     Davidson diagonalization with overlap

---- Real-time Memory Report at c_bands before calling an iterative solver
            72 MiB given to the printing process from OS
             0 MiB allocation reported by mallinfo(arena+hblkhd)
         14186 MiB available memory on the node where the printing process lives
------------------
     ethr =  2.55E-08,  avg # of iterations =  2.0

     total cpu time spent up to now is        1.5 secs

     total energy              =    -151.16153660 Ry
     estimated scf accuracy    <       0.00000010 Ry

     iteration #  6     ecut=    60.00 Ry     beta= 0.70
     Davidson diagonalization with overlap

---- Real-time Memory Report at c_bands before calling an iterative solver
            72 MiB given to the printing process from OS
             0 MiB allocation reported by mallinfo(arena+hblkhd)
         14185 MiB available memory on the node where the printing process lives
------------------
     ethr =  6.07E-10,  avg # of iterations =  2.0

     total cpu time spent up to now is        1.6 secs

     End of self-consistent calculation

          k = 0.0000 0.0000 0.0000 (  2421 PWs)   bands (ev):

   -96.9288 -58.4190 -58.4190 -58.4190  -5.8860   5.9772   5.9772   5.9772
     8.0138  10.2533  10.2533  10.2533  14.8592  15.0551  15.0551  17.4336

     occupation numbers 
     1.0000   1.0000   1.0000   1.0000   1.0000   1.0000   1.0000   1.0000
     0.0000   0.0000   0.0000   0.0000   0.0000   0.0000   0.0000   0.0000

          k =-0.1667 0.1667-0.1667 (  2397 PWs)   bands (ev):

   -96.9280 -58.4191 -58.4191 -58.4191  -5.6174   3.8763   5.7123   5.7123
     8.7860  10.6926  10.6926  11.1649  14.2542  14.2542  15.7275  17.0315

     occupation numbers 
     1.0000   1.0000   1.0000   1.0000   1.0000   1.0000   1.0000   1.0000
     0.0000   0.0000   0.0000   0.0000   0.0000   0.0000   0.0000   0.0000

          k =-0.3333 0.3333-0.3333 (  2424 PWs)   bands (ev):

   -96.9290 -58.4193 -58.4191 -58.4191  -4.9374   1.4789   5.3100   5.3100
     8.3327  10.8359  10.8359  13.4698  15.0678  15.0678  15.3527  19.9499

     occupation numbers 
     1.0000   1.0000   1.0000   1.0000   1.0000   1.0000   1.0000   1.0000
     0.0000   0.0000   0.0000   0.0000   0.0000   0.0000   0.0000   0.0000

          k = 0.5000-0.5000 0.5000 (  2392 PWs)   bands (ev):

   -96.9281 -58.4193 -58.4191 -58.4191  -4.4633   0.3988   5.1479   5.1479
     8.1071  10.6554  10.6554  13.7261  17.1604  17.6056  17.6059  18.1457

     occupation numbers 
     1.0000   1.0000   1.0000   1.0000   1.0000   1.0000   1.0000   1.0000
     0.0000   0.0000   0.0000   0.0000   0.0000   0.0000   0.0000   0.0000

          k = 0.0000 0.3333 0.0000 (  2405 PWs)   bands (ev):

   -96.9282 -58.4191 -58.4191 -58.4191  -5.5266   3.9693   5.1896   5.1896
     9.2516   9.8987  11.5919  11.5919  12.9306  15.5479  16.6584  18.2936

     occupation numbers 
     1.0000   1.0000   1.0000   1.0000   1.0000   1.0000   1.0000   1.0000
     0.0000   0.0000   0.0000   0.0000   0.0000   0.0000   0.0000   0.0000

          k =-0.1667 0.5000-0.1667 (  2398 PWs)   bands (ev):

   -96.9282 -58.4192 -58.4191 -58.4191  -4.9720   2.1280   4.5429   4.7428
     9.0553  10.4772  11.5393  12.1960  14.7791  16.1881  17.0523  19.3242

     occupation numbers 
     1.0000   1.0000   1.0000   1.0000   1.0000   1.0000   1.0000   1.0000
     0.0000   0.0000   0.0000   0.0000   0.0000   0.0000   0.0000   0.0000

          k = 0.6667-0.3333 0.6667 (  2390 PWs)   bands (ev):

   -96.9281 -58.4193 -58.4191 -58.4191  -4.3562   0.7066   3.8593   4.7083
     8.9362  10.7548  11.7596  13.1108  15.6802  17.4478  17.9032  18.7758

     occupation numbers 
     1.0000   1.0000   1.0000   1.0000   1.0000   1.0000   1.0000   1.0000
     0.0000   0.0000   0.0000   0.0000   0.0000   0.0000   0.0000   0.0000

          k = 0.5000-0.1667 0.5000 (  2407 PWs)   bands (ev):

   -96.9286 -58.4193 -58.4191 -58.4191  -4.5248   1.0577   3.6525   5.0918
     9.2522  10.8431  11.4197  13.4325  14.4527  16.0561  17.6756  19.3194

     occupation numbers 
     1.0000   1.0000   1.0000   1.0000   1.0000   1.0000   1.0000   1.0000
     0.0000   0.0000   0.0000   0.0000   0.0000   0.0000   0.0000   0.0000

          k = 0.3333 0.0000 0.3333 (  2403 PWs)   bands (ev):

   -96.9283 -58.4192 -58.4191 -58.4191  -5.2035   2.6646   4.2893   5.6341
     9.6385  10.7331  10.9571  11.8806  13.2739  15.5694  17.4043  17.9093

     occupation numbers 
     1.0000   1.0000   1.0000   1.0000   1.0000   1.0000   1.0000   1.0000
     0.0000   0.0000   0.0000   0.0000   0.0000   0.0000   0.0000   0.0000

          k = 0.0000 0.6667 0.0000 (  2397 PWs)   bands (ev):

   -96.9283 -58.4193 -58.4191 -58.4191  -4.5975   1.6830   4.1788   4.1788
     7.9577   8.9734  14.1553  14.1553  14.9963  17.0206  19.6724  20.4198

     occupation numbers 
     1.0000   1.0000   1.0000   1.0000   1.0000   1.0000   1.0000   1.0000
     0.0000   0.0000   0.0000   0.0000   0.0000   0.0000   0.0000   0.0000

          k = 0.8333-0.1667 0.8333 (  2398 PWs)   bands (ev):

   -96.9283 -58.4193 -58.4192 -58.4191  -4.0866   0.8831   3.1778   4.0576
     8.0603   9.6989  13.9291  14.2973  16.7261  17.6791  19.1007  19.4536

     occupation numbers 
     1.0000   1.0000   1.0000   1.0000   1.0000   1.0000   1.0000   1.0000
     0.0000   0.0000   0.0000   0.0000   0.0000   0.0000   0.0000   0.0000

          k = 0.6667-0.0000 0.6667 (  2381 PWs)   bands (ev):

   -96.9278 -58.4193 -58.4192 -58.4191  -4.0493   0.9149   2.4480   4.4356
     8.5647  12.3164  13.2869  13.5949  13.9181  14.9345  20.3507  20.7526

     occupation numbers 
     1.0000   1.0000   1.0000   1.0000   1.0000   1.0000   1.0000   1.0000
     0.0000   0.0000   0.0000   0.0000   0.0000   0.0000   0.0000   0.0000

          k = 0.0000-1.0000 0.0000 (  2402 PWs)   bands (ev):

   -96.9284 -58.4193 -58.4192 -58.4192  -3.9116   0.5392   3.7967   3.7967
     7.4012   8.2657  16.3107  16.3107  17.7173  18.6731  18.6731  19.1437

     occupation numbers 
     1.0000   1.0000   1.0000   1.0000   1.0000   1.0000   1.0000   1.0000
     0.0000   0.0000   0.0000   0.0000   0.0000   0.0000   0.0000   0.0000

          k = 0.6667-0.3333 1.0000 (  2399 PWs)   bands (ev):

   -96.9283 -58.4193 -58.4192 -58.4191  -4.4105   1.3319   3.2499   4.3235
     9.6420  10.5217  11.1322  13.9107  15.2637  16.7239  19.0484  19.9603

     occupation numbers 
     1.0000   1.0000   1.0000   1.0000   1.0000   1.0000   1.0000   1.0000
     0.0000   0.0000   0.0000   0.0000   0.0000   0.0000   0.0000   0.0000

          k = 0.5000-0.1667 0.8333 (  2396 PWs)   bands (ev):

   -96.9282 -58.4193 -58.4192 -58.4191  -4.0489   0.8460   2.7983   3.9432
     9.9113  10.5576  12.6868  13.4021  14.3466  17.5056  18.8392  19.5402

     occupation numbers 
     1.0000   1.0000   1.0000   1.0000   1.0000   1.0000   1.0000   1.0000
     0.0000   0.0000   0.0000   0.0000   0.0000   0.0000   0.0000   0.0000

          k =-0.3333-1.0000 0.0000 (  2402 PWs)   bands (ev):

   -96.9284 -58.4193 -58.4192 -58.4192  -3.8875   0.7759   3.0358   3.2795
     9.1437  10.0901  13.1041  13.8149  16.5872  18.3713  18.5895  19.9060

     occupation numbers 
     1.0000   1.0000   1.0000   1.0000   1.0000   1.0000   1.0000   1.0000
     0.0000   0.0000   0.0000   0.0000   0.0000   0.0000   0.0000   0.0000

     highest occupied, lowest unoccupied level (ev):     5.9772    7.4012

!    total energy              =    -151.16153663 Ry
     estimated scf accuracy    <          3.0E-09 Ry

     convergence has been achieved in   6 iterations

     Using ACE for calculation of exact exchange

     EXX grid:    19195 G-vectors     FFT dimensions: (  40,  40,  40)
     ACE projected onto    16 (nbndproj) and applied to    16 (nbnd) bands

     EXX: now go back to refine exchange calculation

     total cpu time spent up to now is      273.5 secs

     Self-consistent Calculation

     iteration #  1     ecut=    60.00 Ry     beta= 0.70
     Davidson diagonalization with overlap

---- Real-time Memory Report at c_bands before calling an iterative solver
          1059 MiB given to the printing process from OS
             0 MiB allocation reported by mallinfo(arena+hblkhd)
         10259 MiB available memory on the node where the printing process lives
------------------
     ethr =  6.07E-10,  avg # of iterations =  6.0

     total cpu time spent up to now is      273.8 secs

     total energy              =    -151.18071287 Ry
     estimated scf accuracy    <       0.00010417 Ry

     iteration #  2     ecut=    60.00 Ry     beta= 0.70
     Davidson diagonalization with overlap

---- Real-time Memory Report at c_bands before calling an iterative solver
          1059 MiB given to the printing process from OS
             0 MiB allocation reported by mallinfo(arena+hblkhd)
         10257 MiB available memory on the node where the printing process lives
------------------
     ethr =  6.51E-07,  avg # of iterations =  2.0

     total cpu time spent up to now is      274.0 secs

     total energy              =    -151.18073407 Ry
     estimated scf accuracy    <       0.00001261 Ry

     iteration #  3     ecut=    60.00 Ry     beta= 0.70
     Davidson diagonalization with overlap

---- Real-time Memory Report at c_bands before calling an iterative solver
          1059 MiB given to the printing process from OS
             0 MiB allocation reported by mallinfo(arena+hblkhd)
         10256 MiB available memory on the node where the printing process lives
------------------
     ethr =  7.88E-08,  avg # of iterations =  1.9

     total cpu time spent up to now is      274.1 secs

     total energy              =    -151.18073627 Ry
     estimated scf accuracy    <       0.00000052 Ry

     iteration #  4     ecut=    60.00 Ry     beta= 0.70
     Davidson diagonalization with overlap

---- Real-time Memory Report at c_bands before calling an iterative solver
          1059 MiB given to the printing process from OS
             0 MiB allocation reported by mallinfo(arena+hblkhd)
         10255 MiB available memory on the node where the printing process lives
------------------
     ethr =  3.22E-09,  avg # of iterations =  1.1

     total cpu time spent up to now is      274.3 secs

     End of self-consistent calculation

          k = 0.0000 0.0000 0.0000 (  2421 PWs)   bands (ev):

  -100.9909 -60.3949 -60.3949 -60.3949  -6.9788   5.6238   5.6238   5.6238
     8.3041  10.6681  10.6681  10.6681  15.3066  15.5647  15.5647  17.9464

     occupation numbers 
     1.0000   1.0000   1.0000   1.0000   1.0000   1.0000   1.0000   1.0000
     0.0000   0.0000   0.0000   0.0000   0.0000   0.0000   0.0000   0.0000

          k =-0.1667 0.1667-0.1667 (  2397 PWs)   bands (ev):

  -100.9896 -60.3951 -60.3947 -60.3947  -6.6940   3.4079   5.3452   5.3452
     9.1113  11.1290  11.1290  11.5857  14.7263  14.7263  16.2014  17.5355

     occupation numbers 
     1.0000   1.0000   1.0000   1.0000   1.0000   1.0000   1.0000   1.0000
     0.0000   0.0000   0.0000   0.0000   0.0000   0.0000   0.0000   0.0000

          k =-0.3333 0.3333-0.3333 (  2424 PWs)   bands (ev):

  -100.9912 -60.3953 -60.3951 -60.3951  -5.9691   0.8334   4.9198   4.9198
     8.6343  11.2580  11.2580  13.9522  15.5885  15.5885  15.8273  20.6093

     occupation numbers 
     1.0000   1.0000   1.0000   1.0000   1.0000   1.0000   1.0000   1.0000
     0.0000   0.0000   0.0000   0.0000   0.0000   0.0000   0.0000   0.0000

          k = 0.5000-0.5000 0.5000 (  2392 PWs)   bands (ev):

  -100.9897 -60.3955 -60.3948 -60.3948  -5.4646  -0.3239   4.7474   4.7474
     8.3961  11.0607  11.0607  14.1551  17.7255  18.2157  18.2160  18.7626

     occupation numbers 
     1.0000   1.0000   1.0000   1.0000   1.0000   1.0000   1.0000   1.0000
     0.0000   0.0000   0.0000   0.0000   0.0000   0.0000   0.0000   0.0000

          k = 0.0000 0.3333 0.0000 (  2405 PWs)   bands (ev):

  -100.9897 -60.3952 -60.3946 -60.3946  -6.5977   3.5124   4.7934   4.7934
     9.5972  10.2647  12.0669  12.0669  13.3465  16.0764  17.1856  18.8244

     occupation numbers 
     1.0000   1.0000   1.0000   1.0000   1.0000   1.0000   1.0000   1.0000
     0.0000   0.0000   0.0000   0.0000   0.0000   0.0000   0.0000   0.0000

          k =-0.1667 0.5000-0.1667 (  2398 PWs)   bands (ev):

  -100.9898 -60.3952 -60.3950 -60.3948  -6.0069   1.5314   4.1127   4.3184
     9.3773  10.8944  11.9437  12.6851  15.3247  16.7419  17.5653  19.9251

     occupation numbers 
     1.0000   1.0000   1.0000   1.0000   1.0000   1.0000   1.0000   1.0000
     0.0000   0.0000   0.0000   0.0000   0.0000   0.0000   0.0000   0.0000

          k = 0.6667-0.3333 0.6667 (  2390 PWs)   bands (ev):

  -100.9895 -60.3955 -60.3949 -60.3948  -5.3500   0.0052   3.3850   4.2817
     9.2554  11.1538  12.2154  13.6055  16.1965  18.0539  18.4675  19.4123

     occupation numbers 
     1.0000   1.0000   1.0000   1.0000   1.0000   1.0000   1.0000   1.0000
     0.0000   0.0000   0.0000   0.0000   0.0000   0.0000   0.0000   0.0000

          k = 0.5000-0.1667 0.5000 (  2407 PWs)   bands (ev):

  -100.9902 -60.3953 -60.3951 -60.3949  -5.5298   0.3820   3.1625   4.6880
     9.5960  11.2327  11.8739  13.9396  14.9539  16.6118  18.2221  19.9917

     occupation numbers 
     1.0000   1.0000   1.0000   1.0000   1.0000   1.0000   1.0000   1.0000
     0.0000   0.0000   0.0000   0.0000   0.0000   0.0000   0.0000   0.0000

          k = 0.3333 0.0000 0.3333 (  2403 PWs)   bands (ev):

  -100.9897 -60.3952 -60.3948 -60.3947  -6.2538   2.1083   3.8399   5.2610
    10.0214  11.1161  11.4176  12.3211  13.7057  16.1106  17.9739  18.4310

     occupation numbers 
     1.0000   1.0000   1.0000   1.0000   1.0000   1.0000   1.0000   1.0000
     0.0000   0.0000   0.0000   0.0000   0.0000   0.0000   0.0000   0.0000

          k = 0.0000 0.6667 0.0000 (  2397 PWs)   bands (ev):

  -100.9905 -60.3953 -60.3952 -60.3952  -5.6065   1.0522   3.7183   3.7183
     8.2294   9.2809  14.7373  14.7374  15.5490  17.5921  20.3060  21.0556

     occupation numbers 
     1.0000   1.0000   1.0000   1.0000   1.0000   1.0000   1.0000   1.0000
     0.0000   0.0000   0.0000   0.0000   0.0000   0.0000   0.0000   0.0000

          k = 0.8333-0.1667 0.8333 (  2398 PWs)   bands (ev):

  -100.9899 -60.3954 -60.3950 -60.3950  -5.0612   0.1914   2.6556   3.5901
     8.3331  10.0457  14.4787  14.8624  17.3458  18.2922  19.7958  20.1104

     occupation numbers 
     1.0000   1.0000   1.0000   1.0000   1.0000   1.0000   1.0000   1.0000
     0.0000   0.0000   0.0000   0.0000   0.0000   0.0000   0.0000   0.0000

          k = 0.6667-0.0000 0.6667 (  2381 PWs)   bands (ev):

  -100.9899 -60.3954 -60.3953 -60.3952  -5.0186   0.2236   1.8724   3.9921
     8.8611  12.7676  13.8274  14.1337  14.4536  15.4409  20.9205  21.3448

     occupation numbers 
     1.0000   1.0000   1.0000   1.0000   1.0000   1.0000   1.0000   1.0000
     0.0000   0.0000   0.0000   0.0000   0.0000   0.0000   0.0000   0.0000

          k = 0.0000-1.0000 0.0000 (  2402 PWs)   bands (ev):

  -100.9898 -60.3956 -60.3949 -60.3949  -4.8745  -0.1793   3.3128   3.3128
     7.6471   8.5440  16.9810  16.9810  18.3554  19.3120  19.3120  19.7795

     occupation numbers 
     1.0000   1.0000   1.0000   1.0000   1.0000   1.0000   1.0000   1.0000
     0.0000   0.0000   0.0000   0.0000   0.0000   0.0000   0.0000   0.0000

          k = 0.6667-0.3333 1.0000 (  2399 PWs)   bands (ev):

  -100.9898 -60.3954 -60.3949 -60.3949  -5.4081   0.6760   2.7311   3.8759
     9.9865  10.9281  11.5388  14.4689  15.8114  17.3297  19.6379  20.6276

     occupation numbers 
     1.0000   1.0000   1.0000   1.0000   1.0000   1.0000   1.0000   1.0000
     0.0000   0.0000   0.0000   0.0000   0.0000   0.0000   0.0000   0.0000

          k = 0.5000-0.1667 0.8333 (  2396 PWs)   bands (ev):

  -100.9898 -60.3953 -60.3951 -60.3950  -5.0200   0.1511   2.2481   3.4727
    10.2582  10.9599  13.1865  13.8942  14.9081  18.1104  19.5033  20.1004

     occupation numbers 
     1.0000   1.0000   1.0000   1.0000   1.0000   1.0000   1.0000   1.0000
     0.0000   0.0000   0.0000   0.0000   0.0000   0.0000   0.0000   0.0000

          k =-0.3333-1.0000 0.0000 (  2402 PWs)   bands (ev):

  -100.9899 -60.3955 -60.3950 -60.3949  -4.8478   0.0738   2.5008   2.7700
     9.4603  10.4594  13.6201  14.3423  17.2265  19.0599  19.2185  20.5766

     occupation numbers 
     1.0000   1.0000   1.0000   1.0000   1.0000   1.0000   1.0000   1.0000
     0.0000   0.0000   0.0000   0.0000   0.0000   0.0000   0.0000   0.0000

     highest occupied, lowest unoccupied level (ev):     5.6238    7.6471

!    total energy              =    -151.18073630 Ry
     estimated scf accuracy    <          2.6E-09 Ry

     convergence has been achieved in   4 iterations

     Using ACE for calculation of exact exchange
     ACE projected onto    16 (nbndproj) and applied to    16 (nbnd) bands

     total energy              =    -151.18077660 Ry
     Harris-Foulkes estimate   =    -151.18077660 Ry
     est. exchange err (dexx)  =       0.00004030 Ry
     - averaged Fock potential =       5.38466029 Ry
     + Fock energy (ACE)       =      -2.69303213 Ry

     EXX: now go back to refine exchange calculation

     total cpu time spent up to now is      548.4 secs

     Self-consistent Calculation

     iteration #  1     ecut=    60.00 Ry     beta= 0.70
     Davidson diagonalization with overlap

---- Real-time Memory Report at c_bands before calling an iterative solver
          1060 MiB given to the printing process from OS
             0 MiB allocation reported by mallinfo(arena+hblkhd)
         10262 MiB available memory on the node where the printing process lives
------------------
     ethr =  3.22E-09,  avg # of iterations =  3.0

     total cpu time spent up to now is      548.6 secs

     total energy              =    -151.18077959 Ry
     estimated scf accuracy    <       0.00000081 Ry

     iteration #  2     ecut=    60.00 Ry     beta= 0.70
     Davidson diagonalization with overlap

---- Real-time Memory Report at c_bands before calling an iterative solver
          1060 MiB given to the printing process from OS
             0 MiB allocation reported by mallinfo(arena+hblkhd)
         10255 MiB available memory on the node where the printing process lives
------------------
     ethr =  5.05E-09,  avg # of iterations =  2.0

     total cpu time spent up to now is      548.8 secs

     total energy              =    -151.18077974 Ry
     estimated scf accuracy    <       0.00000009 Ry

     iteration #  3     ecut=    60.00 Ry     beta= 0.70
     Davidson diagonalization with overlap

---- Real-time Memory Report at c_bands before calling an iterative solver
          1060 MiB given to the printing process from OS
             0 MiB allocation reported by mallinfo(arena+hblkhd)
         10254 MiB available memory on the node where the printing process lives
------------------
     ethr =  5.80E-10,  avg # of iterations =  1.9

     total cpu time spent up to now is      548.9 secs

     End of self-consistent calculation

          k = 0.0000 0.0000 0.0000 (  2421 PWs)   bands (ev):

  -100.9939 -60.4011 -60.4011 -60.4011  -6.9771   5.6172   5.6172   5.6172
     8.3164  10.6716  10.6716  10.6716  15.3095  15.5640  15.5640  17.9478

     occupation numbers 
     1.0000   1.0000   1.0000   1.0000   1.0000   1.0000   1.0000   1.0000
     0.0000   0.0000   0.0000   0.0000   0.0000   0.0000   0.0000   0.0000

          k =-0.1667 0.1667-0.1667 (  2397 PWs)   bands (ev):

  -100.9926 -60.4013 -60.4009 -60.4009  -6.6923   3.4079   5.3394   5.3394
     9.1196  11.1317  11.1317  11.5879  14.7260  14.7260  16.2034  17.5371

     occupation numbers 
     1.0000   1.0000   1.0000   1.0000   1.0000   1.0000   1.0000   1.0000
     0.0000   0.0000   0.0000   0.0000   0.0000   0.0000   0.0000   0.0000

          k =-0.3333 0.3333-0.3333 (  2424 PWs)   bands (ev):

  -100.9942 -60.4015 -60.4012 -60.4012  -5.9677   0.8348   4.9146   4.9146
     8.6424  11.2604  11.2604  13.9542  15.5883  15.5883  15.8292  20.6106

     occupation numbers 
     1.0000   1.0000   1.0000   1.0000   1.0000   1.0000   1.0000   1.0000
     0.0000   0.0000   0.0000   0.0000   0.0000   0.0000   0.0000   0.0000

          k = 0.5000-0.5000 0.5000 (  2392 PWs)   bands (ev):

  -100.9928 -60.4017 -60.4011 -60.4011  -5.4632  -0.3222   4.7423   4.7423
     8.4042  11.0629  11.0629  14.1573  17.7272  18.2161  18.2163  18.7618

     occupation numbers 
     1.0000   1.0000   1.0000   1.0000   1.0000   1.0000   1.0000   1.0000
     0.0000   0.0000   0.0000   0.0000   0.0000   0.0000   0.0000   0.0000

          k = 0.0000 0.3333 0.0000 (  2405 PWs)   bands (ev):

  -100.9927 -60.4013 -60.4009 -60.4009  -6.5960   3.5128   4.7889   4.7889
     9.6017  10.2702  12.0684  12.0684  13.3469  16.0755  17.1876  18.8255

     occupation numbers 
     1.0000   1.0000   1.0000   1.0000   1.0000   1.0000   1.0000   1.0000
     0.0000   0.0000   0.0000   0.0000   0.0000   0.0000   0.0000   0.0000

          k =-0.1667 0.5000-0.1667 (  2398 PWs)   bands (ev):

  -100.9928 -60.4013 -60.4012 -60.4010  -6.0054   1.5326   4.1105   4.3144
     9.3815  10.8983  11.9445  12.6861  15.3259  16.7415  17.5666  19.9261

     occupation numbers 
     1.0000   1.0000   1.0000   1.0000   1.0000   1.0000   1.0000   1.0000
     0.0000   0.0000   0.0000   0.0000   0.0000   0.0000   0.0000   0.0000

          k = 0.6667-0.3333 0.6667 (  2390 PWs)   bands (ev):

  -100.9926 -60.4016 -60.4011 -60.4010  -5.3486   0.0068   3.3840   4.2776
     9.2600  11.1560  12.2166  13.6067  16.1978  18.0540  18.4687  19.4117

     occupation numbers 
     1.0000   1.0000   1.0000   1.0000   1.0000   1.0000   1.0000   1.0000
     0.0000   0.0000   0.0000   0.0000   0.0000   0.0000   0.0000   0.0000

          k = 0.5000-0.1667 0.5000 (  2407 PWs)   bands (ev):

  -100.9932 -60.4015 -60.4013 -60.4011  -5.5284   0.3836   3.1617   4.6833
     9.6011  11.2344  11.8756  13.9412  14.9535  16.6132  18.2228  19.9915

     occupation numbers 
     1.0000   1.0000   1.0000   1.0000   1.0000   1.0000   1.0000   1.0000
     0.0000   0.0000   0.0000   0.0000   0.0000   0.0000   0.0000   0.0000

          k = 0.3333 0.0000 0.3333 (  2403 PWs)   bands (ev):

  -100.9928 -60.4014 -60.4010 -60.4009  -6.2522   2.1093   3.8382   5.2553
    10.0278  11.1172  11.4203  12.3228  13.7052  16.1114  17.9753  18.4315

     occupation numbers 
     1.0000   1.0000   1.0000   1.0000   1.0000   1.0000   1.0000   1.0000
     0.0000   0.0000   0.0000   0.0000   0.0000   0.0000   0.0000   0.0000

          k = 0.0000 0.6667 0.0000 (  2397 PWs)   bands (ev):

  -100.9934 -60.4015 -60.4014 -60.4014  -5.6052   1.0536   3.7149   3.7149
     8.2346   9.2848  14.7382  14.7382  15.5508  17.5915  20.3073  21.0557

     occupation numbers 
     1.0000   1.0000   1.0000   1.0000   1.0000   1.0000   1.0000   1.0000
     0.0000   0.0000   0.0000   0.0000   0.0000   0.0000   0.0000   0.0000

          k = 0.8333-0.1667 0.8333 (  2398 PWs)   bands (ev):

  -100.9930 -60.4016 -60.4013 -60.4012  -5.0600   0.1930   2.6548   3.5867
     8.3377  10.0480  14.4803  14.8633  17.3475  18.2922  19.7962  20.1095

     occupation numbers 
     1.0000   1.0000   1.0000   1.0000   1.0000   1.0000   1.0000   1.0000
     0.0000   0.0000   0.0000   0.0000   0.0000   0.0000   0.0000   0.0000

          k = 0.6667-0.0000 0.6667 (  2381 PWs)   bands (ev):

  -100.9929 -60.4015 -60.4015 -60.4014  -5.0176   0.2254   1.8725   3.9883
     8.8657  12.7683  13.8289  14.1350  14.4555  15.4402  20.9212  21.3447

     occupation numbers 
     1.0000   1.0000   1.0000   1.0000   1.0000   1.0000   1.0000   1.0000
     0.0000   0.0000   0.0000   0.0000   0.0000   0.0000   0.0000   0.0000

          k = 0.0000-1.0000 0.0000 (  2402 PWs)   bands (ev):

  -100.9929 -60.4017 -60.4011 -60.4011  -4.8732  -0.1776   3.3095   3.3095
     7.6522   8.5483  16.9831  16.9831  18.3578  19.3105  19.3105  19.7798

     occupation numbers 
     1.0000   1.0000   1.0000   1.0000   1.0000   1.0000   1.0000   1.0000
     0.0000   0.0000   0.0000   0.0000   0.0000   0.0000   0.0000   0.0000

          k = 0.6667-0.3333 1.0000 (  2399 PWs)   bands (ev):

  -100.9928 -60.4016 -60.4011 -60.4011  -5.4067   0.6775   2.7304   3.8733
     9.9886  10.9312  11.5403  14.4698  15.8122  17.3306  19.6384  20.6273

     occupation numbers 
     1.0000   1.0000   1.0000   1.0000   1.0000   1.0000   1.0000   1.0000
     0.0000   0.0000   0.0000   0.0000   0.0000   0.0000   0.0000   0.0000

          k = 0.5000-0.1667 0.8333 (  2396 PWs)   bands (ev):

  -100.9929 -60.4015 -60.4013 -60.4012  -5.0188   0.1528   2.2479   3.4709
    10.2599  10.9625  13.1880  13.8948  14.9092  18.1113  19.5029  20.1011

     occupation numbers 
     1.0000   1.0000   1.0000   1.0000   1.0000   1.0000   1.0000   1.0000
     0.0000   0.0000   0.0000   0.0000   0.0000   0.0000   0.0000   0.0000

          k =-0.3333-1.0000 0.0000 (  2402 PWs)   bands (ev):

  -100.9929 -60.4016 -60.4012 -60.4011  -4.8466   0.0754   2.4996   2.7694
     9.4623  10.4615  13.6218  14.3432  17.2280  19.0594  19.2196  20.5761

     occupation numbers 
     1.0000   1.0000   1.0000   1.0000   1.0000   1.0000   1.0000   1.0000
     0.0000   0.0000   0.0000   0.0000   0.0000   0.0000   0.0000   0.0000

     highest occupied, lowest unoccupied level (ev):     5.6172    7.6522

!    total energy              =    -151.18077975 Ry
     estimated scf accuracy    <          4.5E-09 Ry

     convergence has been achieved in   3 iterations

     Using ACE for calculation of exact exchange
     ACE projected onto    16 (nbndproj) and applied to    16 (nbnd) bands

     total energy              =    -151.18078004 Ry
     Harris-Foulkes estimate   =    -151.18078004 Ry
     est. exchange err (dexx)  =       0.00000029 Ry
     - averaged Fock potential =       5.38619686 Ry
     + Fock energy (ACE)       =      -2.69316501 Ry

     EXX: now go back to refine exchange calculation

     total cpu time spent up to now is      796.4 secs

     Self-consistent Calculation

     iteration #  1     ecut=    60.00 Ry     beta= 0.70
     Davidson diagonalization with overlap

---- Real-time Memory Report at c_bands before calling an iterative solver
          1060 MiB given to the printing process from OS
             0 MiB allocation reported by mallinfo(arena+hblkhd)
         10266 MiB available memory on the node where the printing process lives
------------------
     ethr =  5.80E-10,  avg # of iterations =  2.0

     Threshold (ethr) on eigenvalues was too large:
     Diagonalizing with lowered threshold

     Davidson diagonalization with overlap

---- Real-time Memory Report at c_bands before calling an iterative solver
          1060 MiB given to the printing process from OS
             0 MiB allocation reported by mallinfo(arena+hblkhd)
         10264 MiB available memory on the node where the printing process lives
------------------
     ethr =  3.37E-11,  avg # of iterations =  1.0

     total cpu time spent up to now is      796.7 secs

     End of self-consistent calculation

          k = 0.0000 0.0000 0.0000 (  2421 PWs)   bands (ev):

  -100.9941 -60.4014 -60.4014 -60.4014  -6.9770   5.6165   5.6165   5.6165
     8.3176  10.6719  10.6719  10.6719  15.3098  15.5640  15.5640  17.9480

     occupation numbers 
     1.0000   1.0000   1.0000   1.0000   1.0000   1.0000   1.0000   1.0000
     0.0000   0.0000   0.0000   0.0000   0.0000   0.0000   0.0000   0.0000

          k =-0.1667 0.1667-0.1667 (  2397 PWs)   bands (ev):

  -100.9928 -60.4017 -60.4013 -60.4013  -6.6922   3.4079   5.3388   5.3388
     9.1204  11.1319  11.1319  11.5881  14.7260  14.7260  16.2037  17.5373

     occupation numbers 
     1.0000   1.0000   1.0000   1.0000   1.0000   1.0000   1.0000   1.0000
     0.0000   0.0000   0.0000   0.0000   0.0000   0.0000   0.0000   0.0000

          k =-0.3333 0.3333-0.3333 (  2424 PWs)   bands (ev):

  -100.9943 -60.4019 -60.4016 -60.4016  -5.9677   0.8349   4.9140   4.9140
     8.6431  11.2606  11.2606  13.9544  15.5883  15.5883  15.8294  20.6107

     occupation numbers 
     1.0000   1.0000   1.0000   1.0000   1.0000   1.0000   1.0000   1.0000
     0.0000   0.0000   0.0000   0.0000   0.0000   0.0000   0.0000   0.0000

          k = 0.5000-0.5000 0.5000 (  2392 PWs)   bands (ev):

  -100.9929 -60.4021 -60.4014 -60.4014  -5.4631  -0.3220   4.7418   4.7418
     8.4050  11.0631  11.0631  14.1576  17.7273  18.2162  18.2163  18.7617

     occupation numbers 
     1.0000   1.0000   1.0000   1.0000   1.0000   1.0000   1.0000   1.0000
     0.0000   0.0000   0.0000   0.0000   0.0000   0.0000   0.0000   0.0000

          k = 0.0000 0.3333 0.0000 (  2405 PWs)   bands (ev):

  -100.9929 -60.4017 -60.4012 -60.4012  -6.5959   3.5128   4.7884   4.7884
     9.6021  10.2708  12.0685  12.0685  13.3470  16.0755  17.1879  18.8256

     occupation numbers 
     1.0000   1.0000   1.0000   1.0000   1.0000   1.0000   1.0000   1.0000
     0.0000   0.0000   0.0000   0.0000   0.0000   0.0000   0.0000   0.0000

          k =-0.1667 0.5000-0.1667 (  2398 PWs)   bands (ev):

  -100.9930 -60.4017 -60.4016 -60.4014  -6.0053   1.5327   4.1102   4.3140
     9.3819  10.8987  11.9446  12.6862  15.3260  16.7415  17.5667  19.9263

     occupation numbers 
     1.0000   1.0000   1.0000   1.0000   1.0000   1.0000   1.0000   1.0000
     0.0000   0.0000   0.0000   0.0000   0.0000   0.0000   0.0000   0.0000

          k = 0.6667-0.3333 0.6667 (  2390 PWs)   bands (ev):

  -100.9927 -60.4020 -60.4015 -60.4014  -5.3486   0.0070   3.3839   4.2772
     9.2605  11.1562  12.2168  13.6069  16.1980  18.0541  18.4688  19.4117

     occupation numbers 
     1.0000   1.0000   1.0000   1.0000   1.0000   1.0000   1.0000   1.0000
     0.0000   0.0000   0.0000   0.0000   0.0000   0.0000   0.0000   0.0000

          k = 0.5000-0.1667 0.5000 (  2407 PWs)   bands (ev):

  -100.9934 -60.4019 -60.4016 -60.4014  -5.5283   0.3837   3.1616   4.6829
     9.6016  11.2345  11.8758  13.9413  14.9535  16.6134  18.2229  19.9915

     occupation numbers 
     1.0000   1.0000   1.0000   1.0000   1.0000   1.0000   1.0000   1.0000
     0.0000   0.0000   0.0000   0.0000   0.0000   0.0000   0.0000   0.0000

          k = 0.3333 0.0000 0.3333 (  2403 PWs)   bands (ev):

  -100.9930 -60.4018 -60.4014 -60.4012  -6.2521   2.1094   3.8380   5.2547
    10.0284  11.1173  11.4206  12.3229  13.7052  16.1115  17.9755  18.4316

     occupation numbers 
     1.0000   1.0000   1.0000   1.0000   1.0000   1.0000   1.0000   1.0000
     0.0000   0.0000   0.0000   0.0000   0.0000   0.0000   0.0000   0.0000

          k = 0.0000 0.6667 0.0000 (  2397 PWs)   bands (ev):

  -100.9936 -60.4018 -60.4017 -60.4017  -5.6052   1.0537   3.7146   3.7146
     8.2352   9.2852  14.7383  14.7383  15.5510  17.5914  20.3075  21.0558

     occupation numbers 
     1.0000   1.0000   1.0000   1.0000   1.0000   1.0000   1.0000   1.0000
     0.0000   0.0000   0.0000   0.0000   0.0000   0.0000   0.0000   0.0000

          k = 0.8333-0.1667 0.8333 (  2398 PWs)   bands (ev):

  -100.9932 -60.4020 -60.4016 -60.4016  -5.0599   0.1931   2.6547   3.5864
     8.3381  10.0482  14.4804  14.8634  17.3477  18.2922  19.7963  20.1094

     occupation numbers 
     1.0000   1.0000   1.0000   1.0000   1.0000   1.0000   1.0000   1.0000
     0.0000   0.0000   0.0000   0.0000   0.0000   0.0000   0.0000   0.0000

          k = 0.6667-0.0000 0.6667 (  2381 PWs)   bands (ev):

  -100.9931 -60.4019 -60.4019 -60.4017  -5.0176   0.2255   1.8725   3.9880
     8.8661  12.7684  13.8291  14.1352  14.4556  15.4401  20.9213  21.3448

     occupation numbers 
     1.0000   1.0000   1.0000   1.0000   1.0000   1.0000   1.0000   1.0000
     0.0000   0.0000   0.0000   0.0000   0.0000   0.0000   0.0000   0.0000

          k = 0.0000-1.0000 0.0000 (  2402 PWs)   bands (ev):

  -100.9931 -60.4021 -60.4015 -60.4015  -4.8731  -0.1775   3.3092   3.3092
     7.6528   8.5487  16.9834  16.9834  18.3579  19.3103  19.3103  19.7798

     occupation numbers 
     1.0000   1.0000   1.0000   1.0000   1.0000   1.0000   1.0000   1.0000
     0.0000   0.0000   0.0000   0.0000   0.0000   0.0000   0.0000   0.0000

          k = 0.6667-0.3333 1.0000 (  2399 PWs)   bands (ev):

  -100.9930 -60.4019 -60.4015 -60.4015  -5.4066   0.6776   2.7303   3.8731
     9.9888  10.9315  11.5405  14.4699  15.8122  17.3307  19.6385  20.6271

     occupation numbers 
     1.0000   1.0000   1.0000   1.0000   1.0000   1.0000   1.0000   1.0000
     0.0000   0.0000   0.0000   0.0000   0.0000   0.0000   0.0000   0.0000

          k = 0.5000-0.1667 0.8333 (  2396 PWs)   bands (ev):

  -100.9931 -60.4019 -60.4017 -60.4016  -5.0187   0.1529   2.2478   3.4707
    10.2601  10.9627  13.1882  13.8949  14.9093  18.1114  19.5029  20.1012

     occupation numbers 
     1.0000   1.0000   1.0000   1.0000   1.0000   1.0000   1.0000   1.0000
     0.0000   0.0000   0.0000   0.0000   0.0000   0.0000   0.0000   0.0000

          k =-0.3333-1.0000 0.0000 (  2402 PWs)   bands (ev):

  -100.9931 -60.4020 -60.4016 -60.4015  -4.8465   0.0756   2.4994   2.7693
     9.4625  10.4618  13.6220  14.3433  17.2282  19.0593  19.2197  20.5760

     occupation numbers 
     1.0000   1.0000   1.0000   1.0000   1.0000   1.0000   1.0000   1.0000
     0.0000   0.0000   0.0000   0.0000   0.0000   0.0000   0.0000   0.0000

     highest occupied, lowest unoccupied level (ev):     5.6165    7.6528

!    total energy              =    -151.18078006 Ry
     estimated scf accuracy    <          5.4E-09 Ry

     convergence has been achieved in   1 iterations

     Using ACE for calculation of exact exchange
     ACE projected onto    16 (nbndproj) and applied to    16 (nbnd) bands

!!   total energy              =    -151.18078007 Ry
     Harris-Foulkes estimate   =    -151.18078007 Ry
     est. exchange err (dexx)  =          2.9E-09 Ry
     - averaged Fock potential =       5.38634391 Ry
     + Fock energy (ACE)       =      -2.69317890 Ry

     EXX self-consistency reached

     Writing all to output data dir ./out_qc/alasqc.save/ :
     XML data file, charge density, pseudopotentials, collected wavefunctions

     init_run     :      0.26s CPU      0.27s WALL (       1 calls)
     electrons    :      2.70s CPU      2.87s WALL (       4 calls)

     Called by init_run:
     aceinit0     :      0.00s CPU      0.00s WALL (       1 calls)
     wfcinit      :      0.05s CPU      0.06s WALL (       1 calls)
     wfcinit:wfcr :      0.05s CPU      0.05s WALL (      16 calls)
     potinit      :      0.01s CPU      0.01s WALL (       1 calls)
     hinit0       :      0.19s CPU      0.19s WALL (       1 calls)

     Called by electrons:
     c_bands      :      2.23s CPU      2.37s WALL (      16 calls)
     sum_band     :      0.36s CPU      0.39s WALL (      16 calls)
     v_of_rho     :      0.10s CPU      0.11s WALL (      16 calls)
     v_h          :      0.00s CPU      0.00s WALL (      16 calls)
     v_xc         :      0.10s CPU      0.11s WALL (      16 calls)
     mix_rho      :      0.00s CPU      0.00s WALL (      16 calls)

     Called by c_bands:
     init_us_2    :      0.05s CPU      0.05s WALL (     528 calls)
     cegterg      :      2.13s CPU      2.27s WALL (     256 calls)

     Called by sum_band:
     sum_band:wei :      0.00s CPU      0.00s WALL (      16 calls)
     sum_band:loo :      0.36s CPU      0.38s WALL (      16 calls)
     sum_band:buf :      0.00s CPU      0.00s WALL (     256 calls)
     sum_band:ini :      0.02s CPU      0.03s WALL (     256 calls)

     Called by *egterg:
     cdiaghg      :      0.13s CPU      0.14s WALL (     879 calls)
     cegterg:over :      0.07s CPU      0.07s WALL (     703 calls)
     cegterg:upda :      0.03s CPU      0.03s WALL (     703 calls)
     cegterg:last :      0.05s CPU      0.05s WALL (     582 calls)
     h_psi        :      1.84s CPU      1.96s WALL (     975 calls)
     g_psi        :      0.02s CPU      0.02s WALL (     703 calls)

     Called by h_psi:
     h_psi:calbec :      0.06s CPU      0.06s WALL (     975 calls)
     vloc_psi     :      1.70s CPU      1.81s WALL (     975 calls)
                                        0.00s GPU  (     975 calls)
     add_vuspsi   :      0.03s CPU      0.03s WALL (     975 calls)

     General routines
     calbec       :      0.09s CPU      0.11s WALL (    1743 calls)
     fft          :      0.19s CPU      0.20s WALL (     156 calls)
     ffts         :      0.00s CPU      0.00s WALL (      16 calls)
     fftw         :      1.83s CPU      1.95s WALL (   26286 calls)
     fftc         :    697.28s CPU    775.72s WALL ( 7077888 calls)
     fftcw        :      0.22s CPU      0.29s WALL (    3072 calls)

     Parallel routines

     EXX routines
     exx_grid     :      0.00s CPU      0.00s WALL (       1 calls)
     exxinit      :      3.02s CPU      4.04s WALL (       4 calls)
     vexx         :    928.64s CPU   1032.57s WALL (      64 calls)
     matcalc      :      0.04s CPU      0.04s WALL (     768 calls)
     aceupdate    :      0.00s CPU      0.00s WALL (      64 calls)
     vexxace      :      0.04s CPU      0.05s WALL (     592 calls)
     aceinit      :    928.65s CPU   1032.59s WALL (      64 calls)

     PWSCF        :  15m34.68s CPU  17m19.87s WALL


   This run was terminated on:   5:54:27  26Jun2026            

=------------------------------------------------------------------------------=
   JOB DONE.
=------------------------------------------------------------------------------=
