
     Program PWSCF v.7.5 starts on 15Jun2026 at 19: 2:29 

     This program is part of the open-source Quantum ESPRESSO suite
     for quantum simulation of materials; please cite
         "P. Giannozzi et al., J. Phys.:Condens. Matter 21 395502 (2009);
         "P. Giannozzi et al., J. Phys.:Condens. Matter 29 465901 (2017);
         "P. Giannozzi et al., J. Chem. Phys. 152 154105 (2020);
          URL http://www.quantum-espresso.org", 
     in publications or presentations arising from this work. More details at
     http://www.quantum-espresso.org/quote

     Serial multi-threaded version, running on    4 processor cores
     12423 MiB available memory on the printing compute node when the environment starts

     Reading input from mgo.nqx6.in

     Current dimensions of program PWSCF are:
     Max number of different atomic species (ntypx) = 10
     Max number of k-points (npk) =  40000
     Max angular momentum in pseudopotentials (lmaxx) =  4

     IMPORTANT: XC functional enforced from input :
     Exchange-correlation= HSE
                           (   1   4  12   4   0   0   0)
     EXX-fraction              =        0.25
     Any further DFT definition will be discarded
     Please, verify this is what you really want

     EXX Screening parameter changed:    0.7257000
     EXX fraction changed:   1.00
     DD-RSH-CAM (LMODELHF) semilocal: AEXX, BEXX =   0.3234  1.0000
     DD-RSH-CAM (LMODELHF) enabled
     AEXX =  0.3234   BEXX =  1.0000   mu(bohr^-1) =  0.7257

     EXX: q-point mesh:     6    6    6
     EXX: setup a grid of 216 q-points centered on each k-point
     (k+q)-points:
   0.0000000   0.0000000   0.0000000         1    1
  -0.1666667   0.1666667  -0.1666667         2    1
  -0.3333333   0.3333333  -0.3333333         3    1
   0.5000000  -0.5000000   0.5000000         4    1
   0.3333333  -0.3333333   0.3333333         3   -1
   0.1666667  -0.1666667   0.1666667         2   -1
   0.1666667   0.1666667   0.1666667         2    3
   0.0000000   0.3333333   0.0000000         5    1
  -0.1666667   0.5000000  -0.1666667         6    1
   0.6666667  -0.3333333   0.6666667         7    1
   0.5000000  -0.1666667   0.5000000         8    1
   0.3333333   0.0000000   0.3333333         9    1
   0.3333333   0.3333333   0.3333333         3    3
   0.1666667   0.5000000   0.1666667         6    3
   0.0000000   0.6666667   0.0000000        10    1
   0.8333333  -0.1666667   0.8333333        11    1
   0.6666667   0.0000000   0.6666667        12    1
   0.5000000   0.1666667   0.5000000         8   -3
  -0.5000000  -0.5000000  -0.5000000         4    3
  -0.6666667  -0.3333333  -0.6666667         7    3
  -0.8333333  -0.1666667  -0.8333333        11    3
   0.0000000  -1.0000000   0.0000000        13    1
   0.8333333   0.1666667   0.8333333        11   -3
   0.6666667   0.3333333   0.6666667         7   -3
  -0.3333333  -0.3333333  -0.3333333         3   -3
  -0.5000000  -0.1666667  -0.5000000         8    3
  -0.6666667   0.0000000  -0.6666667        12   -1
  -0.8333333   0.1666667  -0.8333333        11   -1
   0.0000000  -0.6666667   0.0000000        10   -1
  -0.1666667  -0.5000000  -0.1666667         6   -3
  -0.1666667  -0.1666667  -0.1666667         2   -3
  -0.3333333   0.0000000  -0.3333333         9   -1
  -0.5000000   0.1666667  -0.5000000         8   -1
  -0.6666667   0.3333333  -0.6666667         7   -1
   0.1666667  -0.5000000   0.1666667         6   -1
   0.0000000  -0.3333333   0.0000000         5   -1
  -0.1666667  -0.1666667   0.1666667         2    4
  -0.3333333   0.0000000   0.0000000         5   -5
  -0.5000000   0.1666667  -0.1666667         6   -5
   0.3333333  -0.6666667   0.6666667         7   -5
   0.1666667  -0.5000000   0.5000000         8   -5
   0.0000000  -0.3333333   0.3333333         9   -5
   0.0000000   0.0000000   0.3333333         5   13
  -0.1666667   0.1666667   0.1666667         2   -2
  -0.3333333   0.3333333   0.0000000         9   13
  -0.5000000   0.5000000  -0.1666667         8   13
  -0.6666667   0.6666667  -0.3333333         7   13
   0.1666667  -0.1666667   0.5000000         6   13
   0.1666667   0.1666667   0.5000000         6  -16
   0.0000000   0.3333333   0.3333333         9   -6
  -0.1666667   0.5000000   0.1666667         6   -2
   0.6666667  -0.3333333   1.0000000        14    1
   0.5000000  -0.1666667   0.8333333        15    1
  -0.6666667   1.0000000  -0.3333333        14   13
  -0.6666667  -0.6666667  -0.3333333         7  -16
   0.1666667   0.5000000   0.5000000         8    7
  -1.0000000  -0.3333333  -0.6666667        14   -9
   0.8333333  -0.1666667  -0.8333333        11   -2
  -0.3333333  -1.0000000   0.0000000        16    1
   0.5000000   0.1666667   0.8333333        15   -3
  -0.5000000  -0.5000000  -0.1666667         8  -16
   0.3333333   0.6666667   0.6666667         7    7
  -0.8333333  -0.1666667  -0.5000000        15   -9
   0.0000000  -1.0000000   0.3333333        16   -9
   0.8333333   0.1666667  -0.8333333        11    4
   0.6666667   0.3333333   1.0000000        14   -3
  -0.3333333  -0.3333333   0.0000000         9   14
  -0.5000000  -0.1666667  -0.1666667         6    7
   0.3333333  -1.0000000   0.6666667        14   22
  -0.8333333   0.1666667  -0.5000000        15   10
  -1.0000000   0.3333333  -0.6666667        14   10
  -0.1666667  -0.5000000   0.1666667         6    4
  -0.3333333  -0.3333333   0.3333333         3    4
  -0.5000000  -0.1666667   0.1666667         6   -8
  -0.6666667   0.0000000   0.0000000        10   -5
   0.1666667  -0.8333333   0.8333333        11   -5
   0.0000000  -0.6666667   0.6666667        12   -5
  -0.1666667  -0.5000000   0.5000000         8    8
  -0.1666667  -0.1666667   0.5000000         6  -14
  -0.3333333   0.0000000   0.3333333         9    2
  -0.5000000   0.1666667   0.1666667         6    6
   0.3333333  -0.6666667   1.0000000        14   -5
   0.1666667  -0.5000000   0.8333333        15   -5
   1.0000000   0.6666667  -0.3333333        14   17
   0.0000000   0.0000000   0.6666667        10   13
  -0.1666667   0.1666667   0.5000000         6   15
  -0.3333333   0.3333333   0.3333333         3   -2
  -0.5000000   0.5000000   0.1666667         8  -15
  -0.6666667   0.6666667   0.0000000        12   13
  -0.8333333   0.8333333  -0.1666667        11   13
  -0.8333333  -0.8333333  -0.1666667        11  -16
  -1.0000000  -0.6666667  -0.3333333        14   18
  -0.1666667   0.5000000   0.5000000         8   -6
   0.6666667  -0.3333333  -0.6666667         7   -2
   0.5000000  -0.1666667  -0.8333333        15   -2
   0.3333333   0.0000000  -1.0000000        16   13
  -0.6666667  -0.6666667   0.0000000        12   14
   0.1666667   0.5000000   0.8333333        15    7
   0.0000000   0.6666667   0.6666667        12   -6
   0.8333333  -0.1666667  -0.5000000        15   12
   0.6666667   0.0000000  -0.6666667        12   -2
   0.5000000   0.1666667  -0.8333333        15    4
  -0.5000000  -0.5000000   0.1666667         8   14
   0.3333333   0.6666667   1.0000000        14    7
   0.1666667   0.8333333   0.8333333        11    7
  -1.0000000   0.0000000  -0.3333333        16   21
   0.8333333   0.1666667  -0.5000000        15  -11
   0.6666667   0.3333333  -0.6666667         7    4
   0.5000000   0.5000000  -0.5000000         4    4
   0.3333333   0.6666667  -0.6666667         7   -8
   0.1666667   0.8333333  -0.8333333        11   -8
  -1.0000000   0.0000000   0.0000000        13    5
  -0.1666667  -0.8333333   0.8333333        11    8
  -0.3333333  -0.6666667   0.6666667         7    8
   0.6666667   0.6666667  -0.3333333         7  -14
  -0.5000000  -0.1666667   0.5000000         8   -4
   0.3333333  -1.0000000  -0.6666667        14  -21
   0.1666667  -0.8333333  -0.8333333        11    6
   1.0000000   0.3333333   0.0000000        16   -5
  -0.1666667  -0.5000000   0.8333333        15    8
   0.8333333   0.8333333  -0.1666667        11  -14
   0.6666667   1.0000000  -0.3333333        14  -14
  -0.5000000   0.1666667   0.5000000         8    2
   0.3333333  -0.6666667  -0.6666667         7    6
   0.1666667  -0.5000000  -0.8333333        15    6
   0.0000000  -0.3333333  -1.0000000        16   17
   0.0000000   0.0000000  -1.0000000        13   13
   0.8333333  -0.8333333  -0.1666667        11   15
   0.6666667  -0.6666667  -0.3333333         7   15
  -0.5000000   0.5000000   0.5000000         4    2
  -0.6666667   0.6666667   0.3333333         7  -15
  -0.8333333   0.8333333   0.1666667        11  -15
  -0.8333333  -0.8333333   0.1666667        11   14
   0.0000000   0.3333333   1.0000000        16  -17
  -0.1666667   0.5000000   0.8333333        15   -6
  -0.3333333   0.6666667   0.6666667         7   -6
   0.5000000  -0.1666667  -0.5000000         8   -2
  -0.6666667  -1.0000000   0.3333333        14   14
  -0.6666667  -0.6666667   0.3333333         7   14
   0.1666667   0.5000000  -0.8333333        15   -8
  -1.0000000  -0.3333333   0.0000000        16    5
  -0.1666667   0.8333333   0.8333333        11   -6
  -0.3333333   1.0000000   0.6666667        14   21
   0.5000000   0.1666667  -0.5000000         8    4
   0.3333333   0.3333333  -0.3333333         3   -4
   0.1666667   0.5000000  -0.5000000         8   -8
   0.0000000   0.6666667  -0.6666667        12    5
  -0.1666667   0.8333333  -0.8333333        11    5
   0.6666667   0.0000000   0.0000000        10    5
   0.5000000   0.1666667  -0.1666667         6    8
   0.5000000   0.5000000  -0.1666667         8  -14
  -0.6666667  -0.3333333   0.6666667         7   -4
  -0.8333333  -0.1666667   0.5000000        15   11
   1.0000000   0.0000000   0.3333333        16  -21
  -0.1666667  -0.8333333  -0.8333333        11   -7
  -0.3333333  -0.6666667  -1.0000000        14   -7
   0.6666667   0.6666667   0.0000000        12  -14
  -0.5000000  -0.1666667   0.8333333        15   -4
  -0.6666667   0.0000000   0.6666667        12    2
  -0.8333333   0.1666667   0.5000000        15  -12
   0.0000000  -0.6666667  -0.6666667        12    6
  -0.1666667  -0.5000000  -0.8333333        15   -7
   0.8333333   0.8333333   0.1666667        11   16
  -0.3333333   0.0000000   1.0000000        16  -13
  -0.5000000   0.1666667   0.8333333        15    2
  -0.6666667   0.3333333   0.6666667         7    2
   0.1666667  -0.5000000  -0.5000000         8    6
   1.0000000   0.6666667   0.3333333        14  -18
   0.0000000   0.0000000  -0.6666667        10  -13
   0.8333333  -0.8333333   0.1666667        11  -13
   0.6666667  -0.6666667   0.0000000        12  -13
   0.5000000  -0.5000000  -0.1666667         8   15
   0.3333333  -0.3333333  -0.3333333         3    2
   0.1666667  -0.1666667  -0.5000000         6  -15
   0.1666667   0.1666667  -0.5000000         6   14
  -1.0000000  -0.6666667   0.3333333        14  -17
  -0.1666667   0.5000000  -0.8333333        15    5
  -0.3333333   0.6666667  -1.0000000        14    5
   0.5000000  -0.1666667  -0.1666667         6   -6
   0.3333333   0.0000000  -0.3333333         9   -2
   0.1666667   0.1666667  -0.1666667         2   -4
   0.0000000   0.3333333  -0.3333333         9    5
  -0.1666667   0.5000000  -0.5000000         8    5
  -0.3333333   0.6666667  -0.6666667         7    5
   0.5000000  -0.1666667   0.1666667         6    5
   0.3333333   0.0000000   0.0000000         5    5
   0.3333333   0.3333333   0.0000000         9  -14
   0.1666667   0.5000000  -0.1666667         6   -4
   1.0000000  -0.3333333   0.6666667        14  -10
   0.8333333  -0.1666667   0.5000000        15  -10
  -0.3333333   1.0000000  -0.6666667        14  -22
   0.5000000   0.1666667   0.1666667         6   -7
   0.5000000   0.5000000   0.1666667         8   16
  -0.6666667  -0.3333333  -1.0000000        14    3
  -0.8333333  -0.1666667   0.8333333        11   -4
   0.0000000   1.0000000  -0.3333333        16    9
   0.8333333   0.1666667   0.5000000        15    9
  -0.3333333  -0.6666667  -0.6666667         7   -7
   0.6666667   0.6666667   0.3333333         7   16
  -0.5000000  -0.1666667  -0.8333333        15    3
   0.3333333   1.0000000   0.0000000        16   -1
  -0.8333333   0.1666667   0.8333333        11    2
   1.0000000   0.3333333   0.6666667        14    9
  -0.1666667  -0.5000000  -0.5000000         8   -7
  -0.1666667  -0.1666667  -0.5000000         6   16
   0.6666667  -1.0000000   0.3333333        14  -13
  -0.5000000   0.1666667  -0.8333333        15   -1
  -0.6666667   0.3333333  -1.0000000        14   -1
   0.1666667  -0.5000000  -0.1666667         6    2
   0.0000000  -0.3333333  -0.3333333         9    6
   0.0000000   0.0000000  -0.3333333         5  -13
  -0.1666667   0.1666667  -0.5000000         6  -13
   0.6666667  -0.6666667   0.3333333         7  -13
   0.5000000  -0.5000000   0.1666667         8  -13
   0.3333333  -0.3333333   0.0000000         9  -13
   0.1666667  -0.1666667  -0.1666667         2    2

     G-vector sticks info
     --------------------
     sticks:   dense  smooth     PW     G-vecs:    dense   smooth      PW
     Sum         685     685    211                12039    12039    2085

     Using Slab Decomposition



     bravais-lattice index     =            2
     lattice parameter (alat)  =       7.9104  a.u.
     unit-cell volume          =     123.7472 (a.u.)^3
     number of atoms/cell      =            2
     number of atomic types    =            2
     number of electrons       =        16.00
     number of Kohn-Sham states=           16
     kinetic-energy cutoff     =      80.0000  Ry
     charge density cutoff     =     320.0000  Ry
     cutoff for Fock operator  =     320.0000  Ry
     scf convergence threshold =      1.0E-08
     mixing beta               =       0.7000
     number of iterations used =            8  plain     mixing
     Exchange-correlation= HSE
                           (   1   4  12   4   0   0   0)
     EXX-fraction              =        1.00

     celldm(1)=   7.910400  celldm(2)=   0.000000  celldm(3)=   0.000000
     celldm(4)=   0.000000  celldm(5)=   0.000000  celldm(6)=   0.000000

     crystal axes: (cart. coord. in units of alat)
               a(1) = (  -0.500000   0.000000   0.500000 )  
               a(2) = (   0.000000   0.500000   0.500000 )  
               a(3) = (  -0.500000   0.500000   0.000000 )  

     reciprocal axes: (cart. coord. in units 2 pi/alat)
               b(1) = ( -1.000000 -1.000000  1.000000 )  
               b(2) = (  1.000000  1.000000  1.000000 )  
               b(3) = ( -1.000000  1.000000 -1.000000 )  


     PseudoPot. # 1 for Mg read from file:
     ../../../../pseudos/Mg_ONCV_PBE-1.2.upf
     MD5 check sum: 330956729b1f868fdecd9f5113f6a961
     Pseudo is Norm-conserving, Zval = 10.0
     Generated using ONCVPSP code by D. R. Hamann
     Using radial grid of  602 points,  4 beta functions with: 
                l(1) =   0
                l(2) =   0
                l(3) =   1
                l(4) =   1

     PseudoPot. # 2 for O  read from file:
     ../../../../pseudos/O_ONCV_PBE-1.2.upf
     MD5 check sum: e36c48deb68f4e355fffe4602be2c42c
     Pseudo is Norm-conserving, Zval =  6.0
     Generated using ONCVPSP code by D. R. Hamann
     Using radial grid of  602 points,  4 beta functions with: 
                l(1) =   0
                l(2) =   0
                l(3) =   1
                l(4) =   1

     atomic species   valence    mass     pseudopotential
     Mg               10.00    24.30500     Mg( 1.00)
     O                 6.00    15.99900     O ( 1.00)

     48 Sym. Ops., with inversion, found


                                    s                        frac. trans.

      isym =  1     identity                                     

 cryst.   s( 1) = (     1          0          0      )
                  (     0          1          0      )
                  (     0          0          1      )

 cart.    s( 1) = (  1.0000000  0.0000000  0.0000000 )
                  (  0.0000000  1.0000000  0.0000000 )
                  (  0.0000000  0.0000000  1.0000000 )


      isym =  2     180 deg rotation - cart. axis [0,0,1]        

 cryst.   s( 2) = (     0          1         -1      )
                  (     1          0         -1      )
                  (     0          0         -1      )

 cart.    s( 2) = ( -1.0000000  0.0000000  0.0000000 )
                  (  0.0000000 -1.0000000  0.0000000 )
                  (  0.0000000  0.0000000  1.0000000 )


      isym =  3     180 deg rotation - cart. axis [0,1,0]        

 cryst.   s( 3) = (    -1          0          0      )
                  (    -1          0          1      )
                  (    -1          1          0      )

 cart.    s( 3) = ( -1.0000000  0.0000000  0.0000000 )
                  (  0.0000000  1.0000000  0.0000000 )
                  (  0.0000000  0.0000000 -1.0000000 )


      isym =  4     180 deg rotation - cart. axis [1,0,0]        

 cryst.   s( 4) = (     0         -1          1      )
                  (     0         -1          0      )
                  (     1         -1          0      )

 cart.    s( 4) = (  1.0000000  0.0000000  0.0000000 )
                  (  0.0000000 -1.0000000  0.0000000 )
                  (  0.0000000  0.0000000 -1.0000000 )


      isym =  5     180 deg rotation - cart. axis [1,1,0]        

 cryst.   s( 5) = (     0         -1          0      )
                  (    -1          0          0      )
                  (     0          0         -1      )

 cart.    s( 5) = (  0.0000000  1.0000000  0.0000000 )
                  (  1.0000000  0.0000000  0.0000000 )
                  (  0.0000000  0.0000000 -1.0000000 )


      isym =  6     180 deg rotation - cart. axis [1,-1,0]       

 cryst.   s( 6) = (    -1          0          1      )
                  (     0         -1          1      )
                  (     0          0          1      )

 cart.    s( 6) = (  0.0000000 -1.0000000  0.0000000 )
                  ( -1.0000000  0.0000000  0.0000000 )
                  (  0.0000000  0.0000000 -1.0000000 )


      isym =  7      90 deg rotation - cart. axis [0,0,-1]       

 cryst.   s( 7) = (     0          1          0      )
                  (     0          1         -1      )
                  (    -1          1          0      )

 cart.    s( 7) = (  0.0000000  1.0000000  0.0000000 )
                  ( -1.0000000  0.0000000  0.0000000 )
                  (  0.0000000  0.0000000  1.0000000 )


      isym =  8      90 deg rotation - cart. axis [0,0,1]        

 cryst.   s( 8) = (     1          0         -1      )
                  (     1          0          0      )
                  (     1         -1          0      )

 cart.    s( 8) = (  0.0000000 -1.0000000  0.0000000 )
                  (  1.0000000  0.0000000  0.0000000 )
                  (  0.0000000  0.0000000  1.0000000 )


      isym =  9     180 deg rotation - cart. axis [1,0,1]        

 cryst.   s( 9) = (    -1          0          0      )
                  (     0          0         -1      )
                  (     0         -1          0      )

 cart.    s( 9) = (  0.0000000  0.0000000  1.0000000 )
                  (  0.0000000 -1.0000000  0.0000000 )
                  (  1.0000000  0.0000000  0.0000000 )


      isym = 10     180 deg rotation - cart. axis [-1,0,1]       

 cryst.   s(10) = (     1          0          0      )
                  (     1         -1          0      )
                  (     1          0         -1      )

 cart.    s(10) = (  0.0000000  0.0000000 -1.0000000 )
                  (  0.0000000 -1.0000000  0.0000000 )
                  ( -1.0000000  0.0000000  0.0000000 )


      isym = 11      90 deg rotation - cart. axis [0,1,0]        

 cryst.   s(11) = (     0          1         -1      )
                  (    -1          1          0      )
                  (     0          1          0      )

 cart.    s(11) = (  0.0000000  0.0000000  1.0000000 )
                  (  0.0000000  1.0000000  0.0000000 )
                  ( -1.0000000  0.0000000  0.0000000 )


      isym = 12      90 deg rotation - cart. axis [0,-1,0]       

 cryst.   s(12) = (     0         -1          1      )
                  (     0          0          1      )
                  (    -1          0          1      )

 cart.    s(12) = (  0.0000000  0.0000000 -1.0000000 )
                  (  0.0000000  1.0000000  0.0000000 )
                  (  1.0000000  0.0000000  0.0000000 )


      isym = 13     180 deg rotation - cart. axis [0,1,1]        

 cryst.   s(13) = (    -1          1          0      )
                  (     0          1          0      )
                  (     0          1         -1      )

 cart.    s(13) = ( -1.0000000  0.0000000  0.0000000 )
                  (  0.0000000  0.0000000  1.0000000 )
                  (  0.0000000  1.0000000  0.0000000 )


      isym = 14     180 deg rotation - cart. axis [0,1,-1]       

 cryst.   s(14) = (     0          0         -1      )
                  (     0         -1          0      )
                  (    -1          0          0      )

 cart.    s(14) = ( -1.0000000  0.0000000  0.0000000 )
                  (  0.0000000  0.0000000 -1.0000000 )
                  (  0.0000000 -1.0000000  0.0000000 )


      isym = 15      90 deg rotation - cart. axis [-1,0,0]       

 cryst.   s(15) = (     0          0          1      )
                  (    -1          0          1      )
                  (     0         -1          1      )

 cart.    s(15) = (  1.0000000  0.0000000  0.0000000 )
                  (  0.0000000  0.0000000  1.0000000 )
                  (  0.0000000 -1.0000000  0.0000000 )


      isym = 16      90 deg rotation - cart. axis [1,0,0]        

 cryst.   s(16) = (     1         -1          0      )
                  (     1          0         -1      )
                  (     1          0          0      )

 cart.    s(16) = (  1.0000000  0.0000000  0.0000000 )
                  (  0.0000000  0.0000000 -1.0000000 )
                  (  0.0000000  1.0000000  0.0000000 )


      isym = 17     120 deg rotation - cart. axis [-1,-1,-1]     

 cryst.   s(17) = (    -1          0          1      )
                  (    -1          1          0      )
                  (    -1          0          0      )

 cart.    s(17) = (  0.0000000  1.0000000  0.0000000 )
                  (  0.0000000  0.0000000  1.0000000 )
                  (  1.0000000  0.0000000  0.0000000 )


      isym = 18     120 deg rotation - cart. axis [-1,1,1]       

 cryst.   s(18) = (     0          1          0      )
                  (     0          0          1      )
                  (     1          0          0      )

 cart.    s(18) = (  0.0000000 -1.0000000  0.0000000 )
                  (  0.0000000  0.0000000  1.0000000 )
                  ( -1.0000000  0.0000000  0.0000000 )


      isym = 19     120 deg rotation - cart. axis [1,1,-1]       

 cryst.   s(19) = (     1          0         -1      )
                  (     0          0         -1      )
                  (     0          1         -1      )

 cart.    s(19) = (  0.0000000  1.0000000  0.0000000 )
                  (  0.0000000  0.0000000 -1.0000000 )
                  ( -1.0000000  0.0000000  0.0000000 )


      isym = 20     120 deg rotation - cart. axis [1,-1,1]       

 cryst.   s(20) = (     0         -1          0      )
                  (     1         -1          0      )
                  (     0         -1          1      )

 cart.    s(20) = (  0.0000000 -1.0000000  0.0000000 )
                  (  0.0000000  0.0000000 -1.0000000 )
                  (  1.0000000  0.0000000  0.0000000 )


      isym = 21     120 deg rotation - cart. axis [1,1,1]        

 cryst.   s(21) = (     0          0         -1      )
                  (     0          1         -1      )
                  (     1          0         -1      )

 cart.    s(21) = (  0.0000000  0.0000000  1.0000000 )
                  (  1.0000000  0.0000000  0.0000000 )
                  (  0.0000000  1.0000000  0.0000000 )


      isym = 22     120 deg rotation - cart. axis [-1,1,-1]      

 cryst.   s(22) = (    -1          1          0      )
                  (    -1          0          0      )
                  (    -1          0          1      )

 cart.    s(22) = (  0.0000000  0.0000000  1.0000000 )
                  ( -1.0000000  0.0000000  0.0000000 )
                  (  0.0000000 -1.0000000  0.0000000 )


      isym = 23     120 deg rotation - cart. axis [1,-1,-1]      

 cryst.   s(23) = (     0          0          1      )
                  (     1          0          0      )
                  (     0          1          0      )

 cart.    s(23) = (  0.0000000  0.0000000 -1.0000000 )
                  ( -1.0000000  0.0000000  0.0000000 )
                  (  0.0000000  1.0000000  0.0000000 )


      isym = 24     120 deg rotation - cart. axis [-1,-1,1]      

 cryst.   s(24) = (     1         -1          0      )
                  (     0         -1          1      )
                  (     0         -1          0      )

 cart.    s(24) = (  0.0000000  0.0000000 -1.0000000 )
                  (  1.0000000  0.0000000  0.0000000 )
                  (  0.0000000 -1.0000000  0.0000000 )


      isym = 25     inversion                                    

 cryst.   s(25) = (    -1          0          0      )
                  (     0         -1          0      )
                  (     0          0         -1      )

 cart.    s(25) = ( -1.0000000  0.0000000  0.0000000 )
                  (  0.0000000 -1.0000000  0.0000000 )
                  (  0.0000000  0.0000000 -1.0000000 )


      isym = 26     inv. 180 deg rotation - cart. axis [0,0,1]   

 cryst.   s(26) = (     0         -1          1      )
                  (    -1          0          1      )
                  (     0          0          1      )

 cart.    s(26) = (  1.0000000  0.0000000  0.0000000 )
                  (  0.0000000  1.0000000  0.0000000 )
                  (  0.0000000  0.0000000 -1.0000000 )


      isym = 27     inv. 180 deg rotation - cart. axis [0,1,0]   

 cryst.   s(27) = (     1          0          0      )
                  (     1          0         -1      )
                  (     1         -1          0      )

 cart.    s(27) = (  1.0000000  0.0000000  0.0000000 )
                  (  0.0000000 -1.0000000  0.0000000 )
                  (  0.0000000  0.0000000  1.0000000 )


      isym = 28     inv. 180 deg rotation - cart. axis [1,0,0]   

 cryst.   s(28) = (     0          1         -1      )
                  (     0          1          0      )
                  (    -1          1          0      )

 cart.    s(28) = ( -1.0000000  0.0000000  0.0000000 )
                  (  0.0000000  1.0000000  0.0000000 )
                  (  0.0000000  0.0000000  1.0000000 )


      isym = 29     inv. 180 deg rotation - cart. axis [1,1,0]   

 cryst.   s(29) = (     0          1          0      )
                  (     1          0          0      )
                  (     0          0          1      )

 cart.    s(29) = (  0.0000000 -1.0000000  0.0000000 )
                  ( -1.0000000  0.0000000  0.0000000 )
                  (  0.0000000  0.0000000  1.0000000 )


      isym = 30     inv. 180 deg rotation - cart. axis [1,-1,0]  

 cryst.   s(30) = (     1          0         -1      )
                  (     0          1         -1      )
                  (     0          0         -1      )

 cart.    s(30) = (  0.0000000  1.0000000  0.0000000 )
                  (  1.0000000  0.0000000  0.0000000 )
                  (  0.0000000  0.0000000  1.0000000 )


      isym = 31     inv.  90 deg rotation - cart. axis [0,0,-1]  

 cryst.   s(31) = (     0         -1          0      )
                  (     0         -1          1      )
                  (     1         -1          0      )

 cart.    s(31) = (  0.0000000 -1.0000000  0.0000000 )
                  (  1.0000000  0.0000000  0.0000000 )
                  (  0.0000000  0.0000000 -1.0000000 )


      isym = 32     inv.  90 deg rotation - cart. axis [0,0,1]   

 cryst.   s(32) = (    -1          0          1      )
                  (    -1          0          0      )
                  (    -1          1          0      )

 cart.    s(32) = (  0.0000000  1.0000000  0.0000000 )
                  ( -1.0000000  0.0000000  0.0000000 )
                  (  0.0000000  0.0000000 -1.0000000 )


      isym = 33     inv. 180 deg rotation - cart. axis [1,0,1]   

 cryst.   s(33) = (     1          0          0      )
                  (     0          0          1      )
                  (     0          1          0      )

 cart.    s(33) = (  0.0000000  0.0000000 -1.0000000 )
                  (  0.0000000  1.0000000  0.0000000 )
                  ( -1.0000000  0.0000000  0.0000000 )


      isym = 34     inv. 180 deg rotation - cart. axis [-1,0,1]  

 cryst.   s(34) = (    -1          0          0      )
                  (    -1          1          0      )
                  (    -1          0          1      )

 cart.    s(34) = (  0.0000000  0.0000000  1.0000000 )
                  (  0.0000000  1.0000000  0.0000000 )
                  (  1.0000000  0.0000000  0.0000000 )


      isym = 35     inv.  90 deg rotation - cart. axis [0,1,0]   

 cryst.   s(35) = (     0         -1          1      )
                  (     1         -1          0      )
                  (     0         -1          0      )

 cart.    s(35) = (  0.0000000  0.0000000 -1.0000000 )
                  (  0.0000000 -1.0000000  0.0000000 )
                  (  1.0000000  0.0000000  0.0000000 )


      isym = 36     inv.  90 deg rotation - cart. axis [0,-1,0]  

 cryst.   s(36) = (     0          1         -1      )
                  (     0          0         -1      )
                  (     1          0         -1      )

 cart.    s(36) = (  0.0000000  0.0000000  1.0000000 )
                  (  0.0000000 -1.0000000  0.0000000 )
                  ( -1.0000000  0.0000000  0.0000000 )


      isym = 37     inv. 180 deg rotation - cart. axis [0,1,1]   

 cryst.   s(37) = (     1         -1          0      )
                  (     0         -1          0      )
                  (     0         -1          1      )

 cart.    s(37) = (  1.0000000  0.0000000  0.0000000 )
                  (  0.0000000  0.0000000 -1.0000000 )
                  (  0.0000000 -1.0000000  0.0000000 )


      isym = 38     inv. 180 deg rotation - cart. axis [0,1,-1]  

 cryst.   s(38) = (     0          0          1      )
                  (     0          1          0      )
                  (     1          0          0      )

 cart.    s(38) = (  1.0000000  0.0000000  0.0000000 )
                  (  0.0000000  0.0000000  1.0000000 )
                  (  0.0000000  1.0000000  0.0000000 )


      isym = 39     inv.  90 deg rotation - cart. axis [-1,0,0]  

 cryst.   s(39) = (     0          0         -1      )
                  (     1          0         -1      )
                  (     0          1         -1      )

 cart.    s(39) = ( -1.0000000  0.0000000  0.0000000 )
                  (  0.0000000  0.0000000 -1.0000000 )
                  (  0.0000000  1.0000000  0.0000000 )


      isym = 40     inv.  90 deg rotation - cart. axis [1,0,0]   

 cryst.   s(40) = (    -1          1          0      )
                  (    -1          0          1      )
                  (    -1          0          0      )

 cart.    s(40) = ( -1.0000000  0.0000000  0.0000000 )
                  (  0.0000000  0.0000000  1.0000000 )
                  (  0.0000000 -1.0000000  0.0000000 )


      isym = 41     inv. 120 deg rotation - cart. axis [-1,-1,-1]

 cryst.   s(41) = (     1          0         -1      )
                  (     1         -1          0      )
                  (     1          0          0      )

 cart.    s(41) = (  0.0000000 -1.0000000  0.0000000 )
                  (  0.0000000  0.0000000 -1.0000000 )
                  ( -1.0000000  0.0000000  0.0000000 )


      isym = 42     inv. 120 deg rotation - cart. axis [-1,1,1]  

 cryst.   s(42) = (     0         -1          0      )
                  (     0          0         -1      )
                  (    -1          0          0      )

 cart.    s(42) = (  0.0000000  1.0000000  0.0000000 )
                  (  0.0000000  0.0000000 -1.0000000 )
                  (  1.0000000  0.0000000  0.0000000 )


      isym = 43     inv. 120 deg rotation - cart. axis [1,1,-1]  

 cryst.   s(43) = (    -1          0          1      )
                  (     0          0          1      )
                  (     0         -1          1      )

 cart.    s(43) = (  0.0000000 -1.0000000  0.0000000 )
                  (  0.0000000  0.0000000  1.0000000 )
                  (  1.0000000  0.0000000  0.0000000 )


      isym = 44     inv. 120 deg rotation - cart. axis [1,-1,1]  

 cryst.   s(44) = (     0          1          0      )
                  (    -1          1          0      )
                  (     0          1         -1      )

 cart.    s(44) = (  0.0000000  1.0000000  0.0000000 )
                  (  0.0000000  0.0000000  1.0000000 )
                  ( -1.0000000  0.0000000  0.0000000 )


      isym = 45     inv. 120 deg rotation - cart. axis [1,1,1]   

 cryst.   s(45) = (     0          0          1      )
                  (     0         -1          1      )
                  (    -1          0          1      )

 cart.    s(45) = (  0.0000000  0.0000000 -1.0000000 )
                  ( -1.0000000  0.0000000  0.0000000 )
                  (  0.0000000 -1.0000000  0.0000000 )


      isym = 46     inv. 120 deg rotation - cart. axis [-1,1,-1] 

 cryst.   s(46) = (     1         -1          0      )
                  (     1          0          0      )
                  (     1          0         -1      )

 cart.    s(46) = (  0.0000000  0.0000000 -1.0000000 )
                  (  1.0000000  0.0000000  0.0000000 )
                  (  0.0000000  1.0000000  0.0000000 )


      isym = 47     inv. 120 deg rotation - cart. axis [1,-1,-1] 

 cryst.   s(47) = (     0          0         -1      )
                  (    -1          0          0      )
                  (     0         -1          0      )

 cart.    s(47) = (  0.0000000  0.0000000  1.0000000 )
                  (  1.0000000  0.0000000  0.0000000 )
                  (  0.0000000 -1.0000000  0.0000000 )


      isym = 48     inv. 120 deg rotation - cart. axis [-1,-1,1] 

 cryst.   s(48) = (    -1          1          0      )
                  (     0          1         -1      )
                  (     0          1          0      )

 cart.    s(48) = (  0.0000000  0.0000000  1.0000000 )
                  ( -1.0000000  0.0000000  0.0000000 )
                  (  0.0000000  1.0000000  0.0000000 )


     point group O_h (m-3m) 
     there are 10 classes
     the character table:

       E     8C3   3C2   6C4   6C2'  i     8S6   3s_h  6S4   6s_d 
A_1g   1.00  1.00  1.00  1.00  1.00  1.00  1.00  1.00  1.00  1.00
A_2g   1.00  1.00  1.00 -1.00 -1.00  1.00  1.00  1.00 -1.00 -1.00
E_g    2.00 -1.00  2.00  0.00  0.00  2.00 -1.00  2.00  0.00  0.00
T_1g   3.00  0.00 -1.00  1.00 -1.00  3.00  0.00 -1.00  1.00 -1.00
T_2g   3.00  0.00 -1.00 -1.00  1.00  3.00  0.00 -1.00 -1.00  1.00
A_1u   1.00  1.00  1.00  1.00  1.00 -1.00 -1.00 -1.00 -1.00 -1.00
A_2u   1.00  1.00  1.00 -1.00 -1.00 -1.00 -1.00 -1.00  1.00  1.00
E_u    2.00 -1.00  2.00  0.00  0.00 -2.00  1.00 -2.00  0.00  0.00
T_1u   3.00  0.00 -1.00  1.00 -1.00 -3.00  0.00  1.00 -1.00  1.00
T_2u   3.00  0.00 -1.00 -1.00  1.00 -3.00  0.00  1.00  1.00 -1.00

     the symmetry operations in each class and the name of the first element:

     E        1
          identity                                               
     8C3     17   19   20   18   24   21   22   23
          120 deg rotation - cart. axis [-1,-1,-1]               
     3C2      2    4    3
          180 deg rotation - cart. axis [0,0,1]                  
     6C4      7    8   15   16   12   11
           90 deg rotation - cart. axis [0,0,-1]                 
     6C2'     5    6   14   13   10    9
          180 deg rotation - cart. axis [1,1,0]                  
     i       25
          inversion                                              
     8S6     41   43   44   42   48   45   46   47
          inv. 120 deg rotation - cart. axis [-1,-1,-1]          
     3s_h    26   28   27
          inv. 180 deg rotation - cart. axis [0,0,1]             
     6S4     31   32   39   40   36   35
          inv.  90 deg rotation - cart. axis [0,0,-1]            
     6s_d    29   30   38   37   34   33
          inv. 180 deg rotation - cart. axis [1,1,0]             

   Cartesian axes

     site n.     atom                  positions (alat units)
         1        Mg     tau(   1) = (   0.0000000   0.0000000   0.0000000  )
         2        O      tau(   2) = (  -0.5000000   0.5000000   0.5000000  )

   Crystallographic axes

     site n.     atom                  positions (cryst. coord.)
         1        Mg     tau(   1) = (  0.0000000  0.0000000  0.0000000  )
         2        O      tau(   2) = (  0.5000000  0.5000000  0.5000000  )

     number of k points=    16
                       cart. coord. in units 2pi/alat
        k(    1) = (   0.0000000   0.0000000   0.0000000), wk =   0.0092593
        k(    2) = (  -0.1666667   0.1666667  -0.1666667), wk =   0.0740741
        k(    3) = (  -0.3333333   0.3333333  -0.3333333), wk =   0.0740741
        k(    4) = (   0.5000000  -0.5000000   0.5000000), wk =   0.0370370
        k(    5) = (   0.0000000   0.3333333   0.0000000), wk =   0.0555556
        k(    6) = (  -0.1666667   0.5000000  -0.1666667), wk =   0.2222222
        k(    7) = (   0.6666667  -0.3333333   0.6666667), wk =   0.2222222
        k(    8) = (   0.5000000  -0.1666667   0.5000000), wk =   0.2222222
        k(    9) = (   0.3333333   0.0000000   0.3333333), wk =   0.1111111
        k(   10) = (   0.0000000   0.6666667   0.0000000), wk =   0.0555556
        k(   11) = (   0.8333333  -0.1666667   0.8333333), wk =   0.2222222
        k(   12) = (   0.6666667  -0.0000000   0.6666667), wk =   0.1111111
        k(   13) = (   0.0000000  -1.0000000   0.0000000), wk =   0.0277778
        k(   14) = (   0.6666667  -0.3333333   1.0000000), wk =   0.2222222
        k(   15) = (   0.5000000  -0.1666667   0.8333333), wk =   0.2222222
        k(   16) = (  -0.3333333  -1.0000000   0.0000000), wk =   0.1111111

                       cryst. coord.
        k(    1) = (   0.0000000   0.0000000   0.0000000), wk =   0.0092593
        k(    2) = (   0.0000000   0.0000000   0.1666667), wk =   0.0740741
        k(    3) = (   0.0000000   0.0000000   0.3333333), wk =   0.0740741
        k(    4) = (   0.0000000   0.0000000  -0.5000000), wk =   0.0370370
        k(    5) = (   0.0000000   0.1666667   0.1666667), wk =   0.0555556
        k(    6) = (   0.0000000   0.1666667   0.3333333), wk =   0.2222222
        k(    7) = (   0.0000000   0.1666667  -0.5000000), wk =   0.2222222
        k(    8) = (   0.0000000   0.1666667  -0.3333333), wk =   0.2222222
        k(    9) = (   0.0000000   0.1666667  -0.1666667), wk =   0.1111111
        k(   10) = (   0.0000000   0.3333333   0.3333333), wk =   0.0555556
        k(   11) = (   0.0000000   0.3333333  -0.5000000), wk =   0.2222222
        k(   12) = (   0.0000000   0.3333333  -0.3333333), wk =   0.1111111
        k(   13) = (   0.0000000  -0.5000000  -0.5000000), wk =   0.0277778
        k(   14) = (   0.1666667   0.3333333  -0.5000000), wk =   0.2222222
        k(   15) = (   0.1666667   0.3333333  -0.3333333), wk =   0.2222222
        k(   16) = (   0.1666667  -0.5000000  -0.3333333), wk =   0.1111111

     Dense  grid:    12039 G-vectors     FFT dimensions: (  32,  32,  32)

     Dynamical RAM for                 wfc:       0.36 MB

     Dynamical RAM for     wfc (w. buffer):       6.20 MB

     Dynamical RAM for                 EXX:    1268.19 MB

     Dynamical RAM for           str. fact:       0.37 MB

     Dynamical RAM for           local pot:       0.00 MB

     Dynamical RAM for          nlocal pot:       0.36 MB

     Dynamical RAM for                qrad:       0.91 MB

     Dynamical RAM for          rho,v,vnew:       1.30 MB

     Dynamical RAM for               rhoin:       0.43 MB

     Dynamical RAM for            rho*nmix:       2.94 MB

     Dynamical RAM for           G-vectors:       0.78 MB

     Dynamical RAM for          h,s,v(r/c):       0.05 MB

     Dynamical RAM for          <psi|beta>:       0.00 MB

     Dynamical RAM for                 psi:       0.73 MB

     Dynamical RAM for                hpsi:       0.73 MB

     Dynamical RAM for      wfcinit/wfcrot:       0.74 MB

     Estimated static dynamical RAM per process >       1.25 GB

     Estimated max dynamical RAM per process >       1.25 GB
     EXX: ACE will be initialized later

     Initial potential from superposition of free atoms

     starting charge      15.9336, renormalised to      16.0000
     Starting wfcs are random

     total cpu time spent up to now is        0.5 secs

     Self-consistent Calculation

     iteration #  1     ecut=    80.00 Ry     beta= 0.70
     Davidson diagonalization with overlap

---- Real-time Memory Report at c_bands before calling an iterative solver
            32 MiB given to the printing process from OS
             0 MiB allocation reported by mallinfo(arena+hblkhd)
         12405 MiB available memory on the node where the printing process lives
------------------
     ethr =  1.00E-02,  avg # of iterations =  7.6

     total cpu time spent up to now is        1.0 secs

     total energy              =    -140.69811897 Ry
     estimated scf accuracy    <       0.36425051 Ry

     iteration #  2     ecut=    80.00 Ry     beta= 0.70
     Davidson diagonalization with overlap

---- Real-time Memory Report at c_bands before calling an iterative solver
            37 MiB given to the printing process from OS
             0 MiB allocation reported by mallinfo(arena+hblkhd)
         12401 MiB available memory on the node where the printing process lives
------------------
     ethr =  2.28E-03,  avg # of iterations =  2.2

     total cpu time spent up to now is        1.2 secs

     total energy              =    -140.79364885 Ry
     estimated scf accuracy    <       0.29364163 Ry

     iteration #  3     ecut=    80.00 Ry     beta= 0.70
     Davidson diagonalization with overlap

---- Real-time Memory Report at c_bands before calling an iterative solver
            38 MiB given to the printing process from OS
             0 MiB allocation reported by mallinfo(arena+hblkhd)
         12400 MiB available memory on the node where the printing process lives
------------------
     ethr =  1.84E-03,  avg # of iterations =  1.8

     total cpu time spent up to now is        1.4 secs

     total energy              =    -140.85155647 Ry
     estimated scf accuracy    <       0.00149095 Ry

     iteration #  4     ecut=    80.00 Ry     beta= 0.70
     Davidson diagonalization with overlap

---- Real-time Memory Report at c_bands before calling an iterative solver
            38 MiB given to the printing process from OS
             0 MiB allocation reported by mallinfo(arena+hblkhd)
         12400 MiB available memory on the node where the printing process lives
------------------
     ethr =  9.32E-06,  avg # of iterations =  5.3

     total cpu time spent up to now is        1.6 secs

     total energy              =    -140.85188476 Ry
     estimated scf accuracy    <       0.00001516 Ry

     iteration #  5     ecut=    80.00 Ry     beta= 0.70
     Davidson diagonalization with overlap

---- Real-time Memory Report at c_bands before calling an iterative solver
            38 MiB given to the printing process from OS
             0 MiB allocation reported by mallinfo(arena+hblkhd)
         12400 MiB available memory on the node where the printing process lives
------------------
     ethr =  9.48E-08,  avg # of iterations =  2.1

     total cpu time spent up to now is        1.8 secs

     total energy              =    -140.85188766 Ry
     estimated scf accuracy    <       0.00000127 Ry

     iteration #  6     ecut=    80.00 Ry     beta= 0.70
     Davidson diagonalization with overlap

---- Real-time Memory Report at c_bands before calling an iterative solver
            39 MiB given to the printing process from OS
             0 MiB allocation reported by mallinfo(arena+hblkhd)
         12399 MiB available memory on the node where the printing process lives
------------------
     ethr =  7.95E-09,  avg # of iterations =  2.0

     total cpu time spent up to now is        2.0 secs

     total energy              =    -140.85188790 Ry
     estimated scf accuracy    <       0.00000011 Ry

     iteration #  7     ecut=    80.00 Ry     beta= 0.70
     Davidson diagonalization with overlap

---- Real-time Memory Report at c_bands before calling an iterative solver
            39 MiB given to the printing process from OS
             0 MiB allocation reported by mallinfo(arena+hblkhd)
         12399 MiB available memory on the node where the printing process lives
------------------
     ethr =  7.13E-10,  avg # of iterations =  1.1

     total cpu time spent up to now is        2.1 secs

     End of self-consistent calculation

          k = 0.0000 0.0000 0.0000 (  1459 PWs)   bands (ev):

   -63.2993 -30.0692 -30.0692 -30.0692  -8.2978   9.0035   9.0035   9.0035
    13.9554  25.0128  25.0128  25.0128  28.8647  30.8680  30.8680  33.7231

     occupation numbers 
     1.0000   1.0000   1.0000   1.0000   1.0000   1.0000   1.0000   1.0000
     0.0000   0.0000   0.0000   0.0000   0.0000   0.0000   0.0000   0.0000

          k =-0.1667 0.1667-0.1667 (  1489 PWs)   bands (ev):

   -63.2972 -30.0924 -30.0715 -30.0715  -7.9974   7.4922   8.8264   8.8264
    15.3658  22.6328  25.5973  25.5973  29.5624  29.5624  31.6020  34.5966

     occupation numbers 
     1.0000   1.0000   1.0000   1.0000   1.0000   1.0000   1.0000   1.0000
     0.0000   0.0000   0.0000   0.0000   0.0000   0.0000   0.0000   0.0000

          k =-0.3333 0.3333-0.3333 (  1501 PWs)   bands (ev):

   -63.2925 -30.1382 -30.0762 -30.0762  -7.3222   5.2988   8.4950   8.4950
    16.8523  21.5079  25.8364  25.8364  30.2315  30.2315  30.8199  38.6176

     occupation numbers 
     1.0000   1.0000   1.0000   1.0000   1.0000   1.0000   1.0000   1.0000
     0.0000   0.0000   0.0000   0.0000   0.0000   0.0000   0.0000   0.0000

          k = 0.5000-0.5000 0.5000 (  1502 PWs)   bands (ev):

   -63.2902 -30.1610 -30.0785 -30.0785  -6.9337   4.3303   8.3393   8.3393
    17.0524  21.8309  25.5764  25.5764  30.2731  31.8470  31.8470  37.9670

     occupation numbers 
     1.0000   1.0000   1.0000   1.0000   1.0000   1.0000   1.0000   1.0000
     0.0000   0.0000   0.0000   0.0000   0.0000   0.0000   0.0000   0.0000

          k = 0.0000 0.3333 0.0000 (  1491 PWs)   bands (ev):

   -63.2964 -30.0906 -30.0768 -30.0768  -7.9075   7.4146   8.6118   8.6118
    15.8500  21.8555  25.9027  25.9027  26.9872  31.7303  33.9175  35.0805

     occupation numbers 
     1.0000   1.0000   1.0000   1.0000   1.0000   1.0000   1.0000   1.0000
     0.0000   0.0000   0.0000   0.0000   0.0000   0.0000   0.0000   0.0000

          k =-0.1667 0.5000-0.1667 (  1484 PWs)   bands (ev):

   -63.2924 -30.1236 -30.0829 -30.0825  -7.3766   5.8957   8.1279   8.2789
    17.5098  20.6772  24.5817  26.4582  27.6328  32.1422  34.2728  38.0717

     occupation numbers 
     1.0000   1.0000   1.0000   1.0000   1.0000   1.0000   1.0000   1.0000
     0.0000   0.0000   0.0000   0.0000   0.0000   0.0000   0.0000   0.0000

          k = 0.6667-0.3333 0.6667 (  1493 PWs)   bands (ev):

   -63.2893 -30.1501 -30.0911 -30.0838  -6.8847   4.7887   7.5472   8.1514
    18.1564  21.4031  23.5127  26.2670  29.2801  32.7309  33.7420  38.5573

     occupation numbers 
     1.0000   1.0000   1.0000   1.0000   1.0000   1.0000   1.0000   1.0000
     0.0000   0.0000   0.0000   0.0000   0.0000   0.0000   0.0000   0.0000

          k = 0.5000-0.1667 0.5000 (  1499 PWs)   bands (ev):

   -63.2902 -30.1433 -30.0946 -30.0785  -7.0005   5.0692   7.4350   8.3399
    18.1542  21.2907  23.7488  26.3783  29.9881  30.6102  33.6644  39.0540

     occupation numbers 
     1.0000   1.0000   1.0000   1.0000   1.0000   1.0000   1.0000   1.0000
     0.0000   0.0000   0.0000   0.0000   0.0000   0.0000   0.0000   0.0000

          k = 0.3333 0.0000 0.3333 (  1492 PWs)   bands (ev):

   -63.2940 -30.1140 -30.0854 -30.0724  -7.5781   6.3625   8.0557   8.6803
    16.9002  21.3592  25.0051  26.8938  27.5026  30.4765  33.6671  36.1993

     occupation numbers 
     1.0000   1.0000   1.0000   1.0000   1.0000   1.0000   1.0000   1.0000
     0.0000   0.0000   0.0000   0.0000   0.0000   0.0000   0.0000   0.0000

          k = 0.0000 0.6667 0.0000 (  1479 PWs)   bands (ev):

   -63.2900 -30.1294 -30.0920 -30.0920  -7.1100   5.5382   7.9378   7.9378
    18.5305  19.1390  23.1326  27.5117  27.5117  34.1479  36.4868  38.8246

     occupation numbers 
     1.0000   1.0000   1.0000   1.0000   1.0000   1.0000   1.0000   1.0000
     0.0000   0.0000   0.0000   0.0000   0.0000   0.0000   0.0000   0.0000

          k = 0.8333-0.1667 0.8333 (  1501 PWs)   bands (ev):

   -63.2878 -30.1397 -30.1051 -30.0944  -6.7714   5.1885   7.0867   7.8039
    18.9228  20.0318  22.1696  27.6151  27.7931  35.3040  36.2075  38.4165

     occupation numbers 
     1.0000   1.0000   1.0000   1.0000   1.0000   1.0000   1.0000   1.0000
     0.0000   0.0000   0.0000   0.0000   0.0000   0.0000   0.0000   0.0000

          k = 0.6667-0.0000 0.6667 (  1516 PWs)   bands (ev):

   -63.2880 -30.1289 -30.1242 -30.0877  -6.7168   5.7459   5.9088   7.9915
    19.4626  21.3773  21.7986  27.0819  28.1529  32.4996  36.9957  37.6158

     occupation numbers 
     1.0000   1.0000   1.0000   1.0000   1.0000   1.0000   1.0000   1.0000
     0.0000   0.0000   0.0000   0.0000   0.0000   0.0000   0.0000   0.0000

          k = 0.0000-1.0000 0.0000 (  1524 PWs)   bands (ev):

   -63.2873 -30.1469 -30.0997 -30.0997  -6.7066   4.8838   7.6424   7.6424
    18.2137  19.2502  22.2960  28.2902  28.2902  34.8488  36.3618  40.2602

     occupation numbers 
     1.0000   1.0000   1.0000   1.0000   1.0000   1.0000   1.0000   1.0000
     0.0000   0.0000   0.0000   0.0000   0.0000   0.0000   0.0000   0.0000

          k = 0.6667-0.3333 1.0000 (  1492 PWs)   bands (ev):

   -63.2893 -30.1343 -30.1027 -30.0866  -6.9471   5.4317   7.1338   7.9745
    19.2192  20.2059  22.8284  26.4916  28.7484  32.2612  37.3061  37.7720

     occupation numbers 
     1.0000   1.0000   1.0000   1.0000   1.0000   1.0000   1.0000   1.0000
     0.0000   0.0000   0.0000   0.0000   0.0000   0.0000   0.0000   0.0000

          k = 0.5000-0.1667 0.8333 (  1498 PWs)   bands (ev):

   -63.2878 -30.1369 -30.1120 -30.0918  -6.7167   5.3790   6.5114   7.7224
    19.7325  21.1228  22.0146  25.7990  30.1091  31.3434  37.2431  37.8621

     occupation numbers 
     1.0000   1.0000   1.0000   1.0000   1.0000   1.0000   1.0000   1.0000
     0.0000   0.0000   0.0000   0.0000   0.0000   0.0000   0.0000   0.0000

          k =-0.3333-1.0000 0.0000 (  1510 PWs)   bands (ev):

   -63.2871 -30.1350 -30.1114 -30.1014  -6.6564   5.4120   6.7398   7.3175
    19.6753  20.7022  21.6554  25.8159  29.5050  34.0010  35.7242  37.8609

     occupation numbers 
     1.0000   1.0000   1.0000   1.0000   1.0000   1.0000   1.0000   1.0000
     0.0000   0.0000   0.0000   0.0000   0.0000   0.0000   0.0000   0.0000

     highest occupied, lowest unoccupied level (ev):     9.0035   13.9554

!    total energy              =    -140.85188791 Ry
     estimated scf accuracy    <          1.9E-09 Ry

     convergence has been achieved in   7 iterations

     Using ACE for calculation of exact exchange

     EXX grid:    12039 G-vectors     FFT dimensions: (  32,  32,  32)
     ACE projected onto    16 (nbndproj) and applied to    16 (nbnd) bands

     EXX: now go back to refine exchange calculation

     total cpu time spent up to now is      118.9 secs

     Self-consistent Calculation

     iteration #  1     ecut=    80.00 Ry     beta= 0.70
     Davidson diagonalization with overlap

---- Real-time Memory Report at c_bands before calling an iterative solver
          2114 MiB given to the printing process from OS
             0 MiB allocation reported by mallinfo(arena+hblkhd)
         10341 MiB available memory on the node where the printing process lives
------------------
     ethr =  7.13E-10,  avg # of iterations =  6.4

     total cpu time spent up to now is      119.4 secs

     total energy              =    -140.85190188 Ry
     estimated scf accuracy    <       0.00164844 Ry

     iteration #  2     ecut=    80.00 Ry     beta= 0.70
     Davidson diagonalization with overlap

---- Real-time Memory Report at c_bands before calling an iterative solver
          2114 MiB given to the printing process from OS
             0 MiB allocation reported by mallinfo(arena+hblkhd)
         10340 MiB available memory on the node where the printing process lives
------------------
     ethr =  1.03E-05,  avg # of iterations =  1.0

     total cpu time spent up to now is      119.6 secs

     total energy              =    -140.85193618 Ry
     estimated scf accuracy    <       0.00009364 Ry

     iteration #  3     ecut=    80.00 Ry     beta= 0.70
     Davidson diagonalization with overlap

---- Real-time Memory Report at c_bands before calling an iterative solver
          2114 MiB given to the printing process from OS
             0 MiB allocation reported by mallinfo(arena+hblkhd)
         10340 MiB available memory on the node where the printing process lives
------------------
     ethr =  5.85E-07,  avg # of iterations =  2.0

     total cpu time spent up to now is      119.8 secs

     total energy              =    -140.85195433 Ry
     estimated scf accuracy    <       0.00003807 Ry

     iteration #  4     ecut=    80.00 Ry     beta= 0.70
     Davidson diagonalization with overlap

---- Real-time Memory Report at c_bands before calling an iterative solver
          2114 MiB given to the printing process from OS
             0 MiB allocation reported by mallinfo(arena+hblkhd)
         10339 MiB available memory on the node where the printing process lives
------------------
     ethr =  2.38E-07,  avg # of iterations =  1.8

     total cpu time spent up to now is      119.9 secs

     total energy              =    -140.85196182 Ry
     estimated scf accuracy    <       0.00000015 Ry

     iteration #  5     ecut=    80.00 Ry     beta= 0.70
     Davidson diagonalization with overlap

---- Real-time Memory Report at c_bands before calling an iterative solver
          2114 MiB given to the printing process from OS
             0 MiB allocation reported by mallinfo(arena+hblkhd)
         10339 MiB available memory on the node where the printing process lives
------------------
     ethr =  9.61E-10,  avg # of iterations =  2.0

     total cpu time spent up to now is      120.1 secs

     total energy              =    -140.85196189 Ry
     estimated scf accuracy    <       0.00000004 Ry

     iteration #  6     ecut=    80.00 Ry     beta= 0.70
     Davidson diagonalization with overlap

---- Real-time Memory Report at c_bands before calling an iterative solver
          2114 MiB given to the printing process from OS
             0 MiB allocation reported by mallinfo(arena+hblkhd)
         10338 MiB available memory on the node where the printing process lives
------------------
     ethr =  2.37E-10,  avg # of iterations =  2.0

     total cpu time spent up to now is      120.3 secs

     End of self-consistent calculation

          k = 0.0000 0.0000 0.0000 (  1459 PWs)   bands (ev):

   -78.9433 -36.7956 -36.7956 -36.7956 -14.9433   6.3297   6.3297   6.3297
    14.6845  26.4797  26.4797  26.4797  30.3452  32.6753  32.6753  36.6004

     occupation numbers 
     1.0000   1.0000   1.0000   1.0000   1.0000   1.0000   1.0000   1.0000
     0.0000   0.0000   0.0000   0.0000   0.0000   0.0000   0.0000   0.0000

          k =-0.1667 0.1667-0.1667 (  1489 PWs)   bands (ev):

   -78.9406 -36.8223 -36.7970 -36.7970 -14.6441   4.6343   6.1112   6.1112
    16.3143  24.0977  27.1785  27.1785  31.5625  31.5625  33.6852  36.7600

     occupation numbers 
     1.0000   1.0000   1.0000   1.0000   1.0000   1.0000   1.0000   1.0000
     0.0000   0.0000   0.0000   0.0000   0.0000   0.0000   0.0000   0.0000

          k =-0.3333 0.3333-0.3333 (  1501 PWs)   bands (ev):

   -78.9378 -36.8751 -36.8017 -36.8017 -13.9717   2.1626   5.7156   5.7156
    18.0270  23.3366  27.6791  27.6791  32.2828  32.2828  32.9116  40.8741

     occupation numbers 
     1.0000   1.0000   1.0000   1.0000   1.0000   1.0000   1.0000   1.0000
     0.0000   0.0000   0.0000   0.0000   0.0000   0.0000   0.0000   0.0000

          k = 0.5000-0.5000 0.5000 (  1502 PWs)   bands (ev):

   -78.9348 -36.9011 -36.8032 -36.8032 -13.6037   1.0903   5.5260   5.5260
    18.2195  24.0090  27.4906  27.4906  32.1852  34.1133  34.1133  40.2972

     occupation numbers 
     1.0000   1.0000   1.0000   1.0000   1.0000   1.0000   1.0000   1.0000
     0.0000   0.0000   0.0000   0.0000   0.0000   0.0000   0.0000   0.0000

          k = 0.0000 0.3333 0.0000 (  1491 PWs)   bands (ev):

   -78.9396 -36.8188 -36.8034 -36.8033 -14.5570   4.5386   5.8712   5.8712
    16.8769  23.1237  27.6776  27.6818  28.9910  33.5871  35.6119  37.7925

     occupation numbers 
     1.0000   1.0000   1.0000   1.0000   1.0000   1.0000   1.0000   1.0000
     0.0000   0.0000   0.0000   0.0000   0.0000   0.0000   0.0000   0.0000

          k =-0.1667 0.5000-0.1667 (  1484 PWs)   bands (ev):

   -78.9366 -36.8568 -36.8095 -36.8091 -14.0344   2.8272   5.3107   5.4839
    18.8207  22.0670  26.4525  28.5010  29.7058  34.1815  36.5270  41.0729

     occupation numbers 
     1.0000   1.0000   1.0000   1.0000   1.0000   1.0000   1.0000   1.0000
     0.0000   0.0000   0.0000   0.0000   0.0000   0.0000   0.0000   0.0000

          k = 0.6667-0.3333 0.6667 (  1493 PWs)   bands (ev):

   -78.9338 -36.8874 -36.8176 -36.8096 -13.5646   1.6064   4.6649   5.3188
    19.4686  23.3702  25.2843  28.3563  31.4011  34.9581  35.8827  41.1519

     occupation numbers 
     1.0000   1.0000   1.0000   1.0000   1.0000   1.0000   1.0000   1.0000
     0.0000   0.0000   0.0000   0.0000   0.0000   0.0000   0.0000   0.0000

          k = 0.5000-0.1667 0.5000 (  1499 PWs)   bands (ev):

   -78.9348 -36.8799 -36.8225 -36.8033 -13.6709   1.9108   4.5502   5.5272
    19.5114  23.1315  25.5849  28.4278  31.8813  32.7044  35.9960  41.6331

     occupation numbers 
     1.0000   1.0000   1.0000   1.0000   1.0000   1.0000   1.0000   1.0000
     0.0000   0.0000   0.0000   0.0000   0.0000   0.0000   0.0000   0.0000

          k = 0.3333 0.0000 0.3333 (  1492 PWs)   bands (ev):

   -78.9377 -36.8463 -36.8126 -36.7971 -14.2299   3.3483   5.2470   5.9206
    18.1318  22.8098  26.9161  28.4652  29.6130  32.4499  36.1623  38.5021

     occupation numbers 
     1.0000   1.0000   1.0000   1.0000   1.0000   1.0000   1.0000   1.0000
     0.0000   0.0000   0.0000   0.0000   0.0000   0.0000   0.0000   0.0000

          k = 0.0000 0.6667 0.0000 (  1479 PWs)   bands (ev):

   -78.9356 -36.8621 -36.8206 -36.8206 -13.7826   2.4369   5.1075   5.1076
    19.9762  20.2378  25.0851  29.9302  29.9319  36.1404  39.2406  41.1372

     occupation numbers 
     1.0000   1.0000   1.0000   1.0000   1.0000   1.0000   1.0000   1.0000
     0.0000   0.0000   0.0000   0.0000   0.0000   0.0000   0.0000   0.0000

          k = 0.8333-0.1667 0.8333 (  1501 PWs)   bands (ev):

   -78.9329 -36.8734 -36.8347 -36.8221 -13.4709   2.0662   4.1625   4.9453
    20.1277  21.5894  24.1680  30.1198  30.2058  37.4898  38.8107  40.5933

     occupation numbers 
     1.0000   1.0000   1.0000   1.0000   1.0000   1.0000   1.0000   1.0000
     0.0000   0.0000   0.0000   0.0000   0.0000   0.0000   0.0000   0.0000

          k = 0.6667-0.0000 0.6667 (  1516 PWs)   bands (ev):

   -78.9340 -36.8631 -36.8559 -36.8144 -13.4070   2.6753   2.8815   5.1450
    20.8853  23.2589  23.6396  29.4517  30.0887  34.3161  39.5288  40.3549

     occupation numbers 
     1.0000   1.0000   1.0000   1.0000   1.0000   1.0000   1.0000   1.0000
     0.0000   0.0000   0.0000   0.0000   0.0000   0.0000   0.0000   0.0000

          k = 0.0000-1.0000 0.0000 (  1524 PWs)   bands (ev):

   -78.9321 -36.8802 -36.8285 -36.8285 -13.4211   1.7366   4.7680   4.7680
    19.2551  20.5992  24.5699  31.0459  31.0459  37.1931  38.5088  42.3535

     occupation numbers 
     1.0000   1.0000   1.0000   1.0000   1.0000   1.0000   1.0000   1.0000
     0.0000   0.0000   0.0000   0.0000   0.0000   0.0000   0.0000   0.0000

          k = 0.6667-0.3333 1.0000 (  1492 PWs)   bands (ev):

   -78.9338 -36.8683 -36.8318 -36.8128 -13.6287   2.3159   4.2289   5.1203
    20.8239  21.6083  24.6101  28.7921  30.8985  34.3676  39.6724  40.5063

     occupation numbers 
     1.0000   1.0000   1.0000   1.0000   1.0000   1.0000   1.0000   1.0000
     0.0000   0.0000   0.0000   0.0000   0.0000   0.0000   0.0000   0.0000

          k = 0.5000-0.1667 0.8333 (  1498 PWs)   bands (ev):

   -78.9328 -36.8713 -36.8415 -36.8193 -13.4122   2.2767   3.5400   4.8381
    21.2710  22.9246  23.7601  27.9501  32.1172  33.6707  39.8003  40.2723

     occupation numbers 
     1.0000   1.0000   1.0000   1.0000   1.0000   1.0000   1.0000   1.0000
     0.0000   0.0000   0.0000   0.0000   0.0000   0.0000   0.0000   0.0000

          k =-0.3333-1.0000 0.0000 (  1510 PWs)   bands (ev):

   -78.9320 -36.8673 -36.8412 -36.8307 -13.3656   2.3274   3.7876   4.3948
    21.0202  22.2876  23.6615  28.0156  32.0797  36.1923  38.0760  40.6353

     occupation numbers 
     1.0000   1.0000   1.0000   1.0000   1.0000   1.0000   1.0000   1.0000
     0.0000   0.0000   0.0000   0.0000   0.0000   0.0000   0.0000   0.0000

     highest occupied, lowest unoccupied level (ev):     6.3297   14.6845

!    total energy              =    -140.85196189 Ry
     estimated scf accuracy    <          5.8E-11 Ry

     convergence has been achieved in   6 iterations

     Using ACE for calculation of exact exchange
     ACE projected onto    16 (nbndproj) and applied to    16 (nbnd) bands

     total energy              =    -140.85437567 Ry
     Harris-Foulkes estimate   =    -140.85437567 Ry
     est. exchange err (dexx)  =       0.00241378 Ry
     - averaged Fock potential =      26.12181544 Ry
     + Fock energy (ACE)       =     -13.08482555 Ry

     EXX: now go back to refine exchange calculation

     total cpu time spent up to now is      235.9 secs

     Self-consistent Calculation

     iteration #  1     ecut=    80.00 Ry     beta= 0.70
     Davidson diagonalization with overlap

---- Real-time Memory Report at c_bands before calling an iterative solver
          2114 MiB given to the printing process from OS
             0 MiB allocation reported by mallinfo(arena+hblkhd)
         10343 MiB available memory on the node where the printing process lives
------------------
     ethr =  2.37E-10,  avg # of iterations =  5.2

     total cpu time spent up to now is      236.2 secs

     total energy              =    -140.85477058 Ry
     estimated scf accuracy    <       0.00005700 Ry

     iteration #  2     ecut=    80.00 Ry     beta= 0.70
     Davidson diagonalization with overlap

---- Real-time Memory Report at c_bands before calling an iterative solver
          2114 MiB given to the printing process from OS
             0 MiB allocation reported by mallinfo(arena+hblkhd)
         10339 MiB available memory on the node where the printing process lives
------------------
     ethr =  3.56E-07,  avg # of iterations =  1.0

     total cpu time spent up to now is      236.4 secs

     total energy              =    -140.85477189 Ry
     estimated scf accuracy    <       0.00000379 Ry

     iteration #  3     ecut=    80.00 Ry     beta= 0.70
     Davidson diagonalization with overlap

---- Real-time Memory Report at c_bands before calling an iterative solver
          2114 MiB given to the printing process from OS
             0 MiB allocation reported by mallinfo(arena+hblkhd)
         10338 MiB available memory on the node where the printing process lives
------------------
     ethr =  2.37E-08,  avg # of iterations =  2.0

     total cpu time spent up to now is      236.6 secs

     total energy              =    -140.85477269 Ry
     estimated scf accuracy    <       0.00000176 Ry

     iteration #  4     ecut=    80.00 Ry     beta= 0.70
     Davidson diagonalization with overlap

---- Real-time Memory Report at c_bands before calling an iterative solver
          2114 MiB given to the printing process from OS
             0 MiB allocation reported by mallinfo(arena+hblkhd)
         10338 MiB available memory on the node where the printing process lives
------------------
     ethr =  1.10E-08,  avg # of iterations =  1.8

     total cpu time spent up to now is      236.8 secs

     End of self-consistent calculation

          k = 0.0000 0.0000 0.0000 (  1459 PWs)   bands (ev):

   -78.9482 -36.8306 -36.8306 -36.8306 -15.0195   6.2818   6.2818   6.2818
    14.7887  26.5176  26.5176  26.5176  30.4061  32.6854  32.6854  36.6314

     occupation numbers 
     1.0000   1.0000   1.0000   1.0000   1.0000   1.0000   1.0000   1.0000
     0.0000   0.0000   0.0000   0.0000   0.0000   0.0000   0.0000   0.0000

          k =-0.1667 0.1667-0.1667 (  1489 PWs)   bands (ev):

   -78.9458 -36.8569 -36.8322 -36.8322 -14.7233   4.6197   6.0664   6.0664
    16.3927  24.1509  27.2135  27.2135  31.5780  31.5780  33.7304  36.7972

     occupation numbers 
     1.0000   1.0000   1.0000   1.0000   1.0000   1.0000   1.0000   1.0000
     0.0000   0.0000   0.0000   0.0000   0.0000   0.0000   0.0000   0.0000

          k =-0.3333 0.3333-0.3333 (  1501 PWs)   bands (ev):

   -78.9427 -36.9088 -36.8365 -36.8365 -14.0627   2.1687   5.6724   5.6724
    18.0999  23.3935  27.7094  27.7094  32.3155  32.3155  32.9631  40.9058

     occupation numbers 
     1.0000   1.0000   1.0000   1.0000   1.0000   1.0000   1.0000   1.0000
     0.0000   0.0000   0.0000   0.0000   0.0000   0.0000   0.0000   0.0000

          k = 0.5000-0.5000 0.5000 (  1502 PWs)   bands (ev):

   -78.9402 -36.9344 -36.8381 -36.8381 -13.7002   1.1069   5.4846   5.4846
    18.2958  24.0694  27.5202  27.5202  32.2411  34.1562  34.1562  40.3137

     occupation numbers 
     1.0000   1.0000   1.0000   1.0000   1.0000   1.0000   1.0000   1.0000
     0.0000   0.0000   0.0000   0.0000   0.0000   0.0000   0.0000   0.0000

          k = 0.0000 0.3333 0.0000 (  1491 PWs)   bands (ev):

   -78.9450 -36.8535 -36.8384 -36.8384 -14.6370   4.5254   5.8309   5.8309
    16.9476  23.1799  27.7149  27.7152  29.0200  33.5955  35.6550  37.8212

     occupation numbers 
     1.0000   1.0000   1.0000   1.0000   1.0000   1.0000   1.0000   1.0000
     0.0000   0.0000   0.0000   0.0000   0.0000   0.0000   0.0000   0.0000

          k =-0.1667 0.5000-0.1667 (  1484 PWs)   bands (ev):

   -78.9419 -36.8910 -36.8444 -36.8439 -14.1230   2.8272   5.2798   5.4455
    18.8820  22.1258  26.4947  28.5326  29.7441  34.2030  36.5627  41.1036

     occupation numbers 
     1.0000   1.0000   1.0000   1.0000   1.0000   1.0000   1.0000   1.0000
     0.0000   0.0000   0.0000   0.0000   0.0000   0.0000   0.0000   0.0000

          k = 0.6667-0.3333 0.6667 (  1493 PWs)   bands (ev):

   -78.9392 -36.9211 -36.8523 -36.8444 -13.6612   1.6171   4.6405   5.2812
    19.5323  23.4271  25.3324  28.3873  31.4419  34.9964  35.9218  41.1378

     occupation numbers 
     1.0000   1.0000   1.0000   1.0000   1.0000   1.0000   1.0000   1.0000
     0.0000   0.0000   0.0000   0.0000   0.0000   0.0000   0.0000   0.0000

          k = 0.5000-0.1667 0.5000 (  1499 PWs)   bands (ev):

   -78.9401 -36.9136 -36.8570 -36.8382 -13.7660   1.9186   4.5280   5.4863
    19.5742  23.1865  25.6335  28.4581  31.9142  32.7474  36.0308  41.6450

     occupation numbers 
     1.0000   1.0000   1.0000   1.0000   1.0000   1.0000   1.0000   1.0000
     0.0000   0.0000   0.0000   0.0000   0.0000   0.0000   0.0000   0.0000

          k = 0.3333 0.0000 0.3333 (  1492 PWs)   bands (ev):

   -78.9431 -36.8806 -36.8475 -36.8321 -14.3149   3.3448   5.2179   5.8777
    18.1945  22.8672  26.9568  28.4989  29.6383  32.4829  36.1926  38.5257

     occupation numbers 
     1.0000   1.0000   1.0000   1.0000   1.0000   1.0000   1.0000   1.0000
     0.0000   0.0000   0.0000   0.0000   0.0000   0.0000   0.0000   0.0000

          k = 0.0000 0.6667 0.0000 (  1479 PWs)   bands (ev):

   -78.9406 -36.8959 -36.8552 -36.8552 -13.8769   2.4379   5.0718   5.0718
    20.0367  20.3071  25.1355  29.9726  29.9726  36.1444  39.2699  41.1676

     occupation numbers 
     1.0000   1.0000   1.0000   1.0000   1.0000   1.0000   1.0000   1.0000
     0.0000   0.0000   0.0000   0.0000   0.0000   0.0000   0.0000   0.0000

          k = 0.8333-0.1667 0.8333 (  1501 PWs)   bands (ev):

   -78.9382 -36.9071 -36.8692 -36.8569 -13.5696   2.0700   4.1424   4.9107
    20.1944  21.6505  24.2209  30.1610  30.2505  37.5129  38.8272  40.6027

     occupation numbers 
     1.0000   1.0000   1.0000   1.0000   1.0000   1.0000   1.0000   1.0000
     0.0000   0.0000   0.0000   0.0000   0.0000   0.0000   0.0000   0.0000

          k = 0.6667-0.0000 0.6667 (  1516 PWs)   bands (ev):

   -78.9390 -36.8969 -36.8899 -36.8490 -13.5083   2.6736   2.8760   5.1069
    20.9456  23.3133  23.6989  29.4865  30.1252  34.3446  39.5618  40.3728

     occupation numbers 
     1.0000   1.0000   1.0000   1.0000   1.0000   1.0000   1.0000   1.0000
     0.0000   0.0000   0.0000   0.0000   0.0000   0.0000   0.0000   0.0000

          k = 0.0000-1.0000 0.0000 (  1524 PWs)   bands (ev):

   -78.9375 -36.9139 -36.8632 -36.8632 -13.5203   1.7427   4.7356   4.7356
    19.3278  20.6694  24.6271  31.0966  31.0966  37.2075  38.5035  42.3769

     occupation numbers 
     1.0000   1.0000   1.0000   1.0000   1.0000   1.0000   1.0000   1.0000
     0.0000   0.0000   0.0000   0.0000   0.0000   0.0000   0.0000   0.0000

          k = 0.6667-0.3333 1.0000 (  1492 PWs)   bands (ev):

   -78.9392 -36.9022 -36.8663 -36.8476 -13.7239   2.3192   4.2089   5.0886
    20.8785  21.6672  24.6626  28.8313  30.9363  34.3977  39.7029  40.5097

     occupation numbers 
     1.0000   1.0000   1.0000   1.0000   1.0000   1.0000   1.0000   1.0000
     0.0000   0.0000   0.0000   0.0000   0.0000   0.0000   0.0000   0.0000

          k = 0.5000-0.1667 0.8333 (  1498 PWs)   bands (ev):

   -78.9381 -36.9052 -36.8758 -36.8539 -13.5120   2.2792   3.5277   4.8091
    21.3265  22.9800  23.8180  27.9885  32.1468  33.7098  39.8077  40.2725

     occupation numbers 
     1.0000   1.0000   1.0000   1.0000   1.0000   1.0000   1.0000   1.0000
     0.0000   0.0000   0.0000   0.0000   0.0000   0.0000   0.0000   0.0000

          k =-0.3333-1.0000 0.0000 (  1510 PWs)   bands (ev):

   -78.9374 -36.9012 -36.8756 -36.8653 -13.4658   2.3275   3.7732   4.3706
    21.0809  22.3496  23.7161  28.0554  32.1258  36.2240  38.0805  40.6579

     occupation numbers 
     1.0000   1.0000   1.0000   1.0000   1.0000   1.0000   1.0000   1.0000
     0.0000   0.0000   0.0000   0.0000   0.0000   0.0000   0.0000   0.0000

     highest occupied, lowest unoccupied level (ev):     6.2818   14.7887

!    total energy              =    -140.85477304 Ry
     estimated scf accuracy    <          5.2E-09 Ry

     convergence has been achieved in   4 iterations

     Using ACE for calculation of exact exchange
     ACE projected onto    16 (nbndproj) and applied to    16 (nbnd) bands

     total energy              =    -140.85484259 Ry
     Harris-Foulkes estimate   =    -140.85484259 Ry
     est. exchange err (dexx)  =       0.00006955 Ry
     - averaged Fock potential =      26.17809808 Ry
     + Fock energy (ACE)       =     -13.09334208 Ry

     EXX: now go back to refine exchange calculation

     total cpu time spent up to now is      352.3 secs

     Self-consistent Calculation

     iteration #  1     ecut=    80.00 Ry     beta= 0.70
     Davidson diagonalization with overlap

---- Real-time Memory Report at c_bands before calling an iterative solver
          2115 MiB given to the printing process from OS
             0 MiB allocation reported by mallinfo(arena+hblkhd)
         10343 MiB available memory on the node where the printing process lives
------------------
     ethr =  1.10E-08,  avg # of iterations =  3.1

     total cpu time spent up to now is      352.6 secs

     total energy              =    -140.85485525 Ry
     estimated scf accuracy    <       0.00000198 Ry

     iteration #  2     ecut=    80.00 Ry     beta= 0.70
     Davidson diagonalization with overlap

---- Real-time Memory Report at c_bands before calling an iterative solver
          2115 MiB given to the printing process from OS
             0 MiB allocation reported by mallinfo(arena+hblkhd)
         10339 MiB available memory on the node where the printing process lives
------------------
     ethr =  1.24E-08,  avg # of iterations =  1.0

     total cpu time spent up to now is      352.8 secs

     total energy              =    -140.85485529 Ry
     estimated scf accuracy    <       0.00000012 Ry

     iteration #  3     ecut=    80.00 Ry     beta= 0.70
     Davidson diagonalization with overlap

---- Real-time Memory Report at c_bands before calling an iterative solver
          2115 MiB given to the printing process from OS
             0 MiB allocation reported by mallinfo(arena+hblkhd)
         10339 MiB available memory on the node where the printing process lives
------------------
     ethr =  7.73E-10,  avg # of iterations =  2.0

     total cpu time spent up to now is      353.0 secs

     total energy              =    -140.85485531 Ry
     estimated scf accuracy    <       0.00000005 Ry

     iteration #  4     ecut=    80.00 Ry     beta= 0.70
     Davidson diagonalization with overlap

---- Real-time Memory Report at c_bands before calling an iterative solver
          2115 MiB given to the printing process from OS
             0 MiB allocation reported by mallinfo(arena+hblkhd)
         10339 MiB available memory on the node where the printing process lives
------------------
     ethr =  3.22E-10,  avg # of iterations =  1.8

     total cpu time spent up to now is      353.2 secs

     End of self-consistent calculation

          k = 0.0000 0.0000 0.0000 (  1459 PWs)   bands (ev):

   -78.9486 -36.8368 -36.8368 -36.8368 -15.0279   6.2724   6.2724   6.2724
    14.8114  26.5253  26.5253  26.5253  30.4186  32.6876  32.6876  36.6380

     occupation numbers 
     1.0000   1.0000   1.0000   1.0000   1.0000   1.0000   1.0000   1.0000
     0.0000   0.0000   0.0000   0.0000   0.0000   0.0000   0.0000   0.0000

          k =-0.1667 0.1667-0.1667 (  1489 PWs)   bands (ev):

   -78.9462 -36.8629 -36.8383 -36.8383 -14.7322   4.6170   6.0576   6.0576
    16.4098  24.1616  27.2208  27.2208  31.5815  31.5815  33.7399  36.8050

     occupation numbers 
     1.0000   1.0000   1.0000   1.0000   1.0000   1.0000   1.0000   1.0000
     0.0000   0.0000   0.0000   0.0000   0.0000   0.0000   0.0000   0.0000

          k =-0.3333 0.3333-0.3333 (  1501 PWs)   bands (ev):

   -78.9431 -36.9147 -36.8426 -36.8426 -14.0734   2.1702   5.6641   5.6641
    18.1155  23.4044  27.7157  27.7157  32.3221  32.3221  32.9733  40.9136

     occupation numbers 
     1.0000   1.0000   1.0000   1.0000   1.0000   1.0000   1.0000   1.0000
     0.0000   0.0000   0.0000   0.0000   0.0000   0.0000   0.0000   0.0000

          k = 0.5000-0.5000 0.5000 (  1502 PWs)   bands (ev):

   -78.9405 -36.9403 -36.8442 -36.8442 -13.7117   1.1100   5.4767   5.4767
    18.3119  24.0807  27.5263  27.5263  32.2521  34.1653  34.1653  40.3183

     occupation numbers 
     1.0000   1.0000   1.0000   1.0000   1.0000   1.0000   1.0000   1.0000
     0.0000   0.0000   0.0000   0.0000   0.0000   0.0000   0.0000   0.0000

          k = 0.0000 0.3333 0.0000 (  1491 PWs)   bands (ev):

   -78.9454 -36.8596 -36.8446 -36.8446 -14.6461   4.5231   5.8228   5.8228
    16.9631  23.1912  27.7226  27.7226  29.0258  33.5974  35.6640  37.8274

     occupation numbers 
     1.0000   1.0000   1.0000   1.0000   1.0000   1.0000   1.0000   1.0000
     0.0000   0.0000   0.0000   0.0000   0.0000   0.0000   0.0000   0.0000

          k =-0.1667 0.5000-0.1667 (  1484 PWs)   bands (ev):

   -78.9423 -36.8970 -36.8506 -36.8500 -14.1334   2.8276   5.2734   5.4379
    18.8952  22.1375  26.5029  28.5397  29.7518  34.2074  36.5704  41.1103

     occupation numbers 
     1.0000   1.0000   1.0000   1.0000   1.0000   1.0000   1.0000   1.0000
     0.0000   0.0000   0.0000   0.0000   0.0000   0.0000   0.0000   0.0000

          k = 0.6667-0.3333 0.6667 (  1493 PWs)   bands (ev):

   -78.9396 -36.9270 -36.8584 -36.8505 -13.6728   1.6192   4.6357   5.2738
    19.5459  23.4380  25.3418  28.3938  31.4504  35.0046  35.9298  41.1305

     occupation numbers 
     1.0000   1.0000   1.0000   1.0000   1.0000   1.0000   1.0000   1.0000
     0.0000   0.0000   0.0000   0.0000   0.0000   0.0000   0.0000   0.0000

          k = 0.5000-0.1667 0.5000 (  1499 PWs)   bands (ev):

   -78.9405 -36.9196 -36.8631 -36.8443 -13.7773   1.9203   4.5236   5.4784
    19.5875  23.1973  25.6429  28.4642  31.9210  32.7564  36.0382  41.6463

     occupation numbers 
     1.0000   1.0000   1.0000   1.0000   1.0000   1.0000   1.0000   1.0000
     0.0000   0.0000   0.0000   0.0000   0.0000   0.0000   0.0000   0.0000

          k = 0.3333 0.0000 0.3333 (  1492 PWs)   bands (ev):

   -78.9435 -36.8866 -36.8537 -36.8383 -14.3247   3.3445   5.2118   5.8693
    18.2082  22.8787  26.9649  28.5059  29.6434  32.4896  36.2002  38.5309

     occupation numbers 
     1.0000   1.0000   1.0000   1.0000   1.0000   1.0000   1.0000   1.0000
     0.0000   0.0000   0.0000   0.0000   0.0000   0.0000   0.0000   0.0000

          k = 0.0000 0.6667 0.0000 (  1479 PWs)   bands (ev):

   -78.9409 -36.9018 -36.8613 -36.8613 -13.8881   2.4384   5.0648   5.0648
    20.0493  20.3208  25.1452  29.9813  29.9813  36.1454  39.2765  41.1741

     occupation numbers 
     1.0000   1.0000   1.0000   1.0000   1.0000   1.0000   1.0000   1.0000
     0.0000   0.0000   0.0000   0.0000   0.0000   0.0000   0.0000   0.0000

          k = 0.8333-0.1667 0.8333 (  1501 PWs)   bands (ev):

   -78.9386 -36.9130 -36.8752 -36.8630 -13.5814   2.0708   4.1384   4.9039
    20.2078  21.6626  24.2314  30.1692  30.2598  37.5177  38.8314  40.6047

     occupation numbers 
     1.0000   1.0000   1.0000   1.0000   1.0000   1.0000   1.0000   1.0000
     0.0000   0.0000   0.0000   0.0000   0.0000   0.0000   0.0000   0.0000

          k = 0.6667-0.0000 0.6667 (  1516 PWs)   bands (ev):

   -78.9393 -36.9029 -36.8958 -36.8551 -13.5205   2.6732   2.8749   5.0996
    20.9579  23.3239  23.7100  29.4934  30.1336  34.3505  39.5688  40.3768

     occupation numbers 
     1.0000   1.0000   1.0000   1.0000   1.0000   1.0000   1.0000   1.0000
     0.0000   0.0000   0.0000   0.0000   0.0000   0.0000   0.0000   0.0000

          k = 0.0000-1.0000 0.0000 (  1524 PWs)   bands (ev):

   -78.9379 -36.9198 -36.8693 -36.8693 -13.5322   1.7437   4.7291   4.7291
    19.3423  20.6834  24.6380  31.1066  31.1066  37.2121  38.5026  42.3819

     occupation numbers 
     1.0000   1.0000   1.0000   1.0000   1.0000   1.0000   1.0000   1.0000
     0.0000   0.0000   0.0000   0.0000   0.0000   0.0000   0.0000   0.0000

          k = 0.6667-0.3333 1.0000 (  1492 PWs)   bands (ev):

   -78.9396 -36.9081 -36.8724 -36.8538 -13.7353   2.3200   4.2049   5.0822
    20.8900  21.6789  24.6727  28.8393  30.9441  34.4043  39.7096  40.4966

     occupation numbers 
     1.0000   1.0000   1.0000   1.0000   1.0000   1.0000   1.0000   1.0000
[...]

     total energy              =    -140.85485770 Ry
     Harris-Foulkes estimate   =    -140.85485770 Ry
     est. exchange err (dexx)  =       0.00000238 Ry
     - averaged Fock potential =      26.18824819 Ry
     + Fock energy (ACE)       =     -13.09490849 Ry

     EXX: now go back to refine exchange calculation

     total cpu time spent up to now is      469.0 secs

     Self-consistent Calculation

     iteration #  1     ecut=    80.00 Ry     beta= 0.70
     Davidson diagonalization with overlap

---- Real-time Memory Report at c_bands before calling an iterative solver
          2115 MiB given to the printing process from OS
             0 MiB allocation reported by mallinfo(arena+hblkhd)
         10340 MiB available memory on the node where the printing process lives
------------------
     ethr =  3.22E-10,  avg # of iterations =  3.0

     total cpu time spent up to now is      469.2 secs

     total energy              =    -140.85485815 Ry
     estimated scf accuracy    <       0.00000007 Ry

     iteration #  2     ecut=    80.00 Ry     beta= 0.70
     Davidson diagonalization with overlap

---- Real-time Memory Report at c_bands before calling an iterative solver
          2115 MiB given to the printing process from OS
             0 MiB allocation reported by mallinfo(arena+hblkhd)
         10337 MiB available memory on the node where the printing process lives
------------------
     ethr =  4.48E-10,  avg # of iterations =  1.0

     total cpu time spent up to now is      469.4 secs

     End of self-consistent calculation

          k = 0.0000 0.0000 0.0000 (  1459 PWs)   bands (ev):

   -78.9487 -36.8379 -36.8379 -36.8379 -15.0289   6.2703   6.2703   6.2703
    14.8164  26.5267  26.5267  26.5267  30.4210  32.6879  32.6879  36.6392

     occupation numbers 
     1.0000   1.0000   1.0000   1.0000   1.0000   1.0000   1.0000   1.0000
     0.0000   0.0000   0.0000   0.0000   0.0000   0.0000   0.0000   0.0000

          k =-0.1667 0.1667-0.1667 (  1489 PWs)   bands (ev):

   -78.9464 -36.8640 -36.8394 -36.8394 -14.7332   4.6163   6.0556   6.0556
    16.4135  24.1637  27.2222  27.2222  31.5820  31.5820  33.7418  36.8064

     occupation numbers 
     1.0000   1.0000   1.0000   1.0000   1.0000   1.0000   1.0000   1.0000
     0.0000   0.0000   0.0000   0.0000   0.0000   0.0000   0.0000   0.0000

          k =-0.3333 0.3333-0.3333 (  1501 PWs)   bands (ev):

   -78.9433 -36.9158 -36.8437 -36.8437 -14.0747   2.1703   5.6623   5.6623
    18.1187  23.4065  27.7169  27.7169  32.3233  32.3233  32.9753  40.9152

     occupation numbers 
     1.0000   1.0000   1.0000   1.0000   1.0000   1.0000   1.0000   1.0000
     0.0000   0.0000   0.0000   0.0000   0.0000   0.0000   0.0000   0.0000

          k = 0.5000-0.5000 0.5000 (  1502 PWs)   bands (ev):

   -78.9407 -36.9413 -36.8453 -36.8453 -13.7131   1.1105   5.4749   5.4749
    18.3152  24.0828  27.5274  27.5274  32.2542  34.1671  34.1671  40.3194

     occupation numbers 
     1.0000   1.0000   1.0000   1.0000   1.0000   1.0000   1.0000   1.0000
     0.0000   0.0000   0.0000   0.0000   0.0000   0.0000   0.0000   0.0000

          k = 0.0000 0.3333 0.0000 (  1491 PWs)   bands (ev):

   -78.9456 -36.8607 -36.8457 -36.8457 -14.6471   4.5225   5.8211   5.8211
    16.9664  23.1934  27.7240  27.7240  29.0269  33.5976  35.6657  37.8286

     occupation numbers 
     1.0000   1.0000   1.0000   1.0000   1.0000   1.0000   1.0000   1.0000
     0.0000   0.0000   0.0000   0.0000   0.0000   0.0000   0.0000   0.0000

          k =-0.1667 0.5000-0.1667 (  1484 PWs)   bands (ev):

   -78.9425 -36.8980 -36.8516 -36.8510 -14.1346   2.8275   5.2720   5.4362
    18.8980  22.1398  26.5044  28.5410  29.7533  34.2082  36.5718  41.1115

     occupation numbers 
     1.0000   1.0000   1.0000   1.0000   1.0000   1.0000   1.0000   1.0000
     0.0000   0.0000   0.0000   0.0000   0.0000   0.0000   0.0000   0.0000

          k = 0.6667-0.3333 0.6667 (  1493 PWs)   bands (ev):

   -78.9398 -36.9281 -36.8595 -36.8516 -13.6742   1.6194   4.6345   5.2722
    19.5487  23.4401  25.3435  28.3949  31.4521  35.0061  35.9312  41.1273

     occupation numbers 
     1.0000   1.0000   1.0000   1.0000   1.0000   1.0000   1.0000   1.0000
     0.0000   0.0000   0.0000   0.0000   0.0000   0.0000   0.0000   0.0000

          k = 0.5000-0.1667 0.5000 (  1499 PWs)   bands (ev):

   -78.9407 -36.9206 -36.8642 -36.8454 -13.7787   1.9204   4.5225   5.4767
    19.5902  23.1993  25.6446  28.4652  31.9223  32.7582  36.0396  41.6459

     occupation numbers 
     1.0000   1.0000   1.0000   1.0000   1.0000   1.0000   1.0000   1.0000
     0.0000   0.0000   0.0000   0.0000   0.0000   0.0000   0.0000   0.0000

          k = 0.3333 0.0000 0.3333 (  1492 PWs)   bands (ev):

   -78.9436 -36.8877 -36.8547 -36.8394 -14.3258   3.3444   5.2104   5.8675
    18.2111  22.8809  26.9665  28.5072  29.6443  32.4908  36.2018  38.5318

     occupation numbers 
     1.0000   1.0000   1.0000   1.0000   1.0000   1.0000   1.0000   1.0000
     0.0000   0.0000   0.0000   0.0000   0.0000   0.0000   0.0000   0.0000

          k = 0.0000 0.6667 0.0000 (  1479 PWs)   bands (ev):

   -78.9411 -36.9028 -36.8624 -36.8624 -13.8895   2.4384   5.0632   5.0632
    20.0519  20.3235  25.1470  29.9829  29.9829  36.1454  39.2779  41.1753

     occupation numbers 
     1.0000   1.0000   1.0000   1.0000   1.0000   1.0000   1.0000   1.0000
     0.0000   0.0000   0.0000   0.0000   0.0000   0.0000   0.0000   0.0000

          k = 0.8333-0.1667 0.8333 (  1501 PWs)   bands (ev):

   -78.9387 -36.9141 -36.8763 -36.8640 -13.5829   2.0708   4.1374   4.9024
    20.2103  21.6650  24.2333  30.1707  30.2616  37.5186  38.8323  40.6050

     occupation numbers 
     1.0000   1.0000   1.0000   1.0000   1.0000   1.0000   1.0000   1.0000
     0.0000   0.0000   0.0000   0.0000   0.0000   0.0000   0.0000   0.0000

          k = 0.6667-0.0000 0.6667 (  1516 PWs)   bands (ev):

   -78.9395 -36.9040 -36.8969 -36.8562 -13.5220   2.6730   2.8745   5.0979
    20.9603  23.3259  23.7120  29.4947  30.1353  34.3516  39.5701  40.3775

     occupation numbers 
     1.0000   1.0000   1.0000   1.0000   1.0000   1.0000   1.0000   1.0000
     0.0000   0.0000   0.0000   0.0000   0.0000   0.0000   0.0000   0.0000

          k = 0.0000-1.0000 0.0000 (  1524 PWs)   bands (ev):

   -78.9381 -36.9209 -36.8703 -36.8703 -13.5337   1.7438   4.7277   4.7277
    19.3451  20.6861  24.6401  31.1084  31.1084  37.2131  38.5023  42.3829

     occupation numbers 
     1.0000   1.0000   1.0000   1.0000   1.0000   1.0000   1.0000   1.0000
     0.0000   0.0000   0.0000   0.0000   0.0000   0.0000   0.0000   0.0000

          k = 0.6667-0.3333 1.0000 (  1492 PWs)   bands (ev):

   -78.9398 -36.9092 -36.8735 -36.8548 -13.7367   2.3200   4.2039   5.0807
    20.8924  21.6811  24.6745  28.8408  30.9456  34.4055  39.7109  40.4823

     occupation numbers 
     1.0000   1.0000   1.0000   1.0000   1.0000   1.0000   1.0000   1.0000
     0.0000   0.0000   0.0000   0.0000   0.0000   0.0000   0.0000   0.0000

          k = 0.5000-0.1667 0.8333 (  1498 PWs)   bands (ev):

   -78.9387 -36.9122 -36.8829 -36.8611 -13.5255   2.2796   3.5246   4.8019
    21.3403  22.9928  23.8310  27.9982  32.1547  33.7194  39.8101  40.2591

     occupation numbers 
     1.0000   1.0000   1.0000   1.0000   1.0000   1.0000   1.0000   1.0000
     0.0000   0.0000   0.0000   0.0000   0.0000   0.0000   0.0000   0.0000

          k =-0.3333-1.0000 0.0000 (  1510 PWs)   bands (ev):

   -78.9380 -36.9082 -36.8828 -36.8724 -13.4794   2.3274   3.7693   4.3646
    21.0951  22.3639  23.7287  28.0657  32.1367  36.2320  38.0828  40.6632

     occupation numbers 
     1.0000   1.0000   1.0000   1.0000   1.0000   1.0000   1.0000   1.0000
     0.0000   0.0000   0.0000   0.0000   0.0000   0.0000   0.0000   0.0000

     highest occupied, lowest unoccupied level (ev):     6.2703   14.8164

!    total energy              =    -140.85485815 Ry
     estimated scf accuracy    <          3.7E-09 Ry

     convergence has been achieved in   2 iterations

     Using ACE for calculation of exact exchange
     ACE projected onto    16 (nbndproj) and applied to    16 (nbnd) bands

     total energy              =    -140.85485825 Ry
     Harris-Foulkes estimate   =    -140.85485825 Ry
     est. exchange err (dexx)  =       0.00000010 Ry
     - averaged Fock potential =      26.19009451 Ry
     + Fock energy (ACE)       =     -13.09518612 Ry

     EXX: now go back to refine exchange calculation

     total cpu time spent up to now is      585.1 secs

     Self-consistent Calculation

     iteration #  1     ecut=    80.00 Ry     beta= 0.70
     Davidson diagonalization with overlap

---- Real-time Memory Report at c_bands before calling an iterative solver
          2115 MiB given to the printing process from OS
             0 MiB allocation reported by mallinfo(arena+hblkhd)
         10339 MiB available memory on the node where the printing process lives
------------------
     ethr =  4.48E-10,  avg # of iterations =  2.1

     Threshold (ethr) on eigenvalues was too large:
     Diagonalizing with lowered threshold

     Davidson diagonalization with overlap

---- Real-time Memory Report at c_bands before calling an iterative solver
          2115 MiB given to the printing process from OS
             0 MiB allocation reported by mallinfo(arena+hblkhd)
         10338 MiB available memory on the node where the printing process lives
------------------
     ethr =  2.13E-11,  avg # of iterations =  1.0

     total cpu time spent up to now is      585.5 secs

     End of self-consistent calculation

          k = 0.0000 0.0000 0.0000 (  1459 PWs)   bands (ev):

   -78.9487 -36.8380 -36.8380 -36.8380 -15.0291   6.2696   6.2696   6.2696
    14.8174  26.5271  26.5271  26.5271  30.4216  32.6879  32.6879  36.6395

     occupation numbers 
     1.0000   1.0000   1.0000   1.0000   1.0000   1.0000   1.0000   1.0000
     0.0000   0.0000   0.0000   0.0000   0.0000   0.0000   0.0000   0.0000

          k =-0.1667 0.1667-0.1667 (  1489 PWs)   bands (ev):

   -78.9464 -36.8642 -36.8396 -36.8396 -14.7335   4.6160   6.0550   6.0550
    16.4142  24.1641  27.2225  27.2225  31.5822  31.5822  33.7422  36.8068

     occupation numbers 
     1.0000   1.0000   1.0000   1.0000   1.0000   1.0000   1.0000   1.0000
     0.0000   0.0000   0.0000   0.0000   0.0000   0.0000   0.0000   0.0000

          k =-0.3333 0.3333-0.3333 (  1501 PWs)   bands (ev):

   -78.9433 -36.9159 -36.8439 -36.8439 -14.0751   2.1702   5.6617   5.6617
    18.1194  23.4068  27.7171  27.7171  32.3236  32.3236  32.9757  40.9155

     occupation numbers 
     1.0000   1.0000   1.0000   1.0000   1.0000   1.0000   1.0000   1.0000
     0.0000   0.0000   0.0000   0.0000   0.0000   0.0000   0.0000   0.0000

          k = 0.5000-0.5000 0.5000 (  1502 PWs)   bands (ev):

   -78.9407 -36.9415 -36.8454 -36.8454 -13.7135   1.1104   5.4743   5.4743
    18.3159  24.0831  27.5276  27.5276  32.2546  34.1674  34.1674  40.3196

     occupation numbers 
     1.0000   1.0000   1.0000   1.0000   1.0000   1.0000   1.0000   1.0000
     0.0000   0.0000   0.0000   0.0000   0.0000   0.0000   0.0000   0.0000

          k = 0.0000 0.3333 0.0000 (  1491 PWs)   bands (ev):

   -78.9456 -36.8608 -36.8458 -36.8458 -14.6474   4.5222   5.8205   5.8205
    16.9670  23.1938  27.7243  27.7243  29.0271  33.5977  35.6661  37.8288

     occupation numbers 
     1.0000   1.0000   1.0000   1.0000   1.0000   1.0000   1.0000   1.0000
     0.0000   0.0000   0.0000   0.0000   0.0000   0.0000   0.0000   0.0000

          k =-0.1667 0.5000-0.1667 (  1484 PWs)   bands (ev):

   -78.9425 -36.8982 -36.8518 -36.8512 -14.1349   2.8274   5.2715   5.4357
    18.8985  22.1402  26.5047  28.5413  29.7536  34.2083  36.5721  41.1117

     occupation numbers 
     1.0000   1.0000   1.0000   1.0000   1.0000   1.0000   1.0000   1.0000
     0.0000   0.0000   0.0000   0.0000   0.0000   0.0000   0.0000   0.0000

          k = 0.6667-0.3333 0.6667 (  1493 PWs)   bands (ev):

   -78.9398 -36.9282 -36.8596 -36.8518 -13.6745   1.6193   4.6341   5.2716
    19.5492  23.4403  25.3439  28.3951  31.4524  35.0064  35.9316  41.1261

     occupation numbers 
     1.0000   1.0000   1.0000   1.0000   1.0000   1.0000   1.0000   1.0000
     0.0000   0.0000   0.0000   0.0000   0.0000   0.0000   0.0000   0.0000

          k = 0.5000-0.1667 0.5000 (  1499 PWs)   bands (ev):

   -78.9407 -36.9208 -36.8643 -36.8456 -13.7790   1.9203   4.5221   5.4761
    19.5907  23.1997  25.6449  28.4654  31.9226  32.7585  36.0399  41.6455

     occupation numbers 
     1.0000   1.0000   1.0000   1.0000   1.0000   1.0000   1.0000   1.0000
     0.0000   0.0000   0.0000   0.0000   0.0000   0.0000   0.0000   0.0000

          k = 0.3333 0.0000 0.3333 (  1492 PWs)   bands (ev):

   -78.9437 -36.8878 -36.8549 -36.8395 -14.3261   3.3442   5.2099   5.8669
    18.2116  22.8813  26.9667  28.5075  29.6444  32.4910  36.2021  38.5320

     occupation numbers 
     1.0000   1.0000   1.0000   1.0000   1.0000   1.0000   1.0000   1.0000
     0.0000   0.0000   0.0000   0.0000   0.0000   0.0000   0.0000   0.0000

          k = 0.0000 0.6667 0.0000 (  1479 PWs)   bands (ev):

   -78.9411 -36.9030 -36.8625 -36.8625 -13.8898   2.4382   5.0627   5.0627
    20.0523  20.3241  25.1473  29.9832  29.9832  36.1454  39.2781  41.1756

     occupation numbers 
     1.0000   1.0000   1.0000   1.0000   1.0000   1.0000   1.0000   1.0000
     0.0000   0.0000   0.0000   0.0000   0.0000   0.0000   0.0000   0.0000

          k = 0.8333-0.1667 0.8333 (  1501 PWs)   bands (ev):

   -78.9387 -36.9142 -36.8765 -36.8642 -13.5833   2.0706   4.1370   4.9018
    20.2109  21.6654  24.2336  30.1710  30.2619  37.5187  38.8324  40.6051

     occupation numbers 
     1.0000   1.0000   1.0000   1.0000   1.0000   1.0000   1.0000   1.0000
     0.0000   0.0000   0.0000   0.0000   0.0000   0.0000   0.0000   0.0000

          k = 0.6667-0.0000 0.6667 (  1516 PWs)   bands (ev):

   -78.9395 -36.9041 -36.8970 -36.8563 -13.5224   2.6728   2.8743   5.0974
    20.9608  23.3262  23.7123  29.4949  30.1357  34.3519  39.5704  40.3776

     occupation numbers 
     1.0000   1.0000   1.0000   1.0000   1.0000   1.0000   1.0000   1.0000
     0.0000   0.0000   0.0000   0.0000   0.0000   0.0000   0.0000   0.0000

          k = 0.0000-1.0000 0.0000 (  1524 PWs)   bands (ev):

   -78.9381 -36.9210 -36.8705 -36.8705 -13.5341   1.7437   4.7272   4.7272
    19.3457  20.6867  24.6403  31.1087  31.1087  37.2133  38.5022  42.3831

     occupation numbers 
     1.0000   1.0000   1.0000   1.0000   1.0000   1.0000   1.0000   1.0000
     0.0000   0.0000   0.0000   0.0000   0.0000   0.0000   0.0000   0.0000

          k = 0.6667-0.3333 1.0000 (  1492 PWs)   bands (ev):

   -78.9398 -36.9093 -36.8736 -36.8550 -13.7371   2.3198   4.2035   5.0802
    20.8928  21.6816  24.6748  28.8411  30.9459  34.4058  39.7112  40.4705

     occupation numbers 
     1.0000   1.0000   1.0000   1.0000   1.0000   1.0000   1.0000   1.0000
     0.0000   0.0000   0.0000   0.0000   0.0000   0.0000   0.0000   0.0000

          k = 0.5000-0.1667 0.8333 (  1498 PWs)   bands (ev):

   -78.9387 -36.9124 -36.8831 -36.8612 -13.5259   2.2794   3.5243   4.8014
    21.3407  22.9931  23.8314  27.9985  32.1550  33.7196  39.8102  40.2561

     occupation numbers 
     1.0000   1.0000   1.0000   1.0000   1.0000   1.0000   1.0000   1.0000
     0.0000   0.0000   0.0000   0.0000   0.0000   0.0000   0.0000   0.0000

          k =-0.3333-1.0000 0.0000 (  1510 PWs)   bands (ev):

   -78.9380 -36.9083 -36.8829 -36.8726 -13.4798   2.3272   3.7690   4.3642
    21.0956  22.3643  23.7290  28.0660  32.1370  36.2322  38.0828  40.6632

     occupation numbers 
     1.0000   1.0000   1.0000   1.0000   1.0000   1.0000   1.0000   1.0000
     0.0000   0.0000   0.0000   0.0000   0.0000   0.0000   0.0000   0.0000

     highest occupied, lowest unoccupied level (ev):     6.2696   14.8174

!    total energy              =    -140.85485826 Ry
     estimated scf accuracy    <          3.4E-09 Ry

     convergence has been achieved in   1 iterations

     Using ACE for calculation of exact exchange
     ACE projected onto    16 (nbndproj) and applied to    16 (nbnd) bands

!!   total energy              =    -140.85485827 Ry
     Harris-Foulkes estimate   =    -140.85485827 Ry
     est. exchange err (dexx)  =          4.2E-09 Ry
     - averaged Fock potential =      26.19046216 Ry
     + Fock energy (ACE)       =     -13.09527604 Ry

     EXX self-consistency reached

     Writing all to output data dir ./out6/mgo6.save/ :
     XML data file, charge density, pseudopotentials, collected wavefunctions

     init_run     :      1.72s CPU      0.46s WALL (       1 calls)
     electrons    :     39.51s CPU      5.66s WALL (       6 calls)

     Called by init_run:
     aceinit0     :      0.00s CPU      0.00s WALL (       1 calls)
     wfcinit      :      1.00s CPU      0.21s WALL (       1 calls)
     wfcinit:wfcr :      0.89s CPU      0.20s WALL (      16 calls)
     potinit      :      0.07s CPU      0.02s WALL (       1 calls)
     hinit0       :      0.64s CPU      0.21s WALL (       1 calls)

     Called by electrons:
     c_bands      :     32.69s CPU      4.68s WALL (      25 calls)
     sum_band     :      5.79s CPU      0.83s WALL (      25 calls)
     v_of_rho     :      0.94s CPU      0.14s WALL (      26 calls)
     v_h          :      0.05s CPU      0.01s WALL (      26 calls)
     v_xc         :      0.89s CPU      0.13s WALL (      26 calls)
     mix_rho      :      0.08s CPU      0.01s WALL (      25 calls)

     Called by c_bands:
     init_us_2    :      1.03s CPU      0.12s WALL (     816 calls)
     cegterg      :     31.44s CPU      4.52s WALL (     400 calls)

     Called by sum_band:
     sum_band:wei :      0.00s CPU      0.00s WALL (      25 calls)
     sum_band:loo :      5.73s CPU      0.82s WALL (      25 calls)
     sum_band:buf :      0.06s CPU      0.01s WALL (     400 calls)
     sum_band:ini :      0.50s CPU      0.06s WALL (     400 calls)

     Called by *egterg:
     cdiaghg      :      1.19s CPU      0.21s WALL (    1301 calls)
     cegterg:over :      0.93s CPU      0.13s WALL (     997 calls)
     cegterg:upda :      0.40s CPU      0.07s WALL (     997 calls)
     cegterg:last :      0.67s CPU      0.10s WALL (     836 calls)
     h_psi        :     28.21s CPU      4.03s WALL (    1413 calls)
     g_psi        :      0.29s CPU      0.07s WALL (     997 calls)

     Called by h_psi:
     h_psi:calbec :      0.84s CPU      0.10s WALL (    1413 calls)
     vloc_psi     :     26.04s CPU      3.73s WALL (    1413 calls)
                                        0.00s GPU  (    1413 calls)
     add_vuspsi   :      0.31s CPU      0.05s WALL (    1413 calls)

     General routines
     calbec       :      1.65s CPU      0.22s WALL (    2793 calls)
     fft          :      0.33s CPU      0.15s WALL (     253 calls)
     ffts         :      0.00s CPU      0.00s WALL (      25 calls)
     fftw         :     23.16s CPU      3.39s WALL (   39976 calls)
     fftc         :   1857.93s CPU    461.55s WALL (10616832 calls)
     fftcw        :      1.84s CPU      0.36s WALL (    4608 calls)


     EXX routines
     exx_grid     :      0.03s CPU      0.00s WALL (       1 calls)
     exxinit      :      6.20s CPU      1.36s WALL (       6 calls)
     vexx         :   2800.82s CPU    695.89s WALL (      96 calls)
     matcalc      :      0.81s CPU      0.12s WALL (    1380 calls)
     aceupdate    :      0.07s CPU      0.02s WALL (      96 calls)
     vexxace      :      1.12s CPU      0.16s WALL (    1108 calls)
     aceinit      :   2801.02s CPU    695.93s WALL (      96 calls)

     PWSCF        :  47m29.15s CPU  11m43.55s WALL


   This run was terminated on:  19:14:13  15Jun2026            

=------------------------------------------------------------------------------=
   JOB DONE.
=------------------------------------------------------------------------------=
