
     Program PWSCF v.7.5 starts on 15Jun2026 at 18:59:36 

     This program is part of the open-source Quantum ESPRESSO suite
     for quantum simulation of materials; please cite
         "P. Giannozzi et al., J. Phys.:Condens. Matter 21 395502 (2009);
         "P. Giannozzi et al., J. Phys.:Condens. Matter 29 465901 (2017);
         "P. Giannozzi et al., J. Chem. Phys. 152 154105 (2020);
          URL http://www.quantum-espresso.org", 
     in publications or presentations arising from this work. More details at
     http://www.quantum-espresso.org/quote

     Serial multi-threaded version, running on    4 processor cores
     12436 MiB available memory on the printing compute node when the environment starts

     Reading input from mgo.ddrshcam.in

     Current dimensions of program PWSCF are:
     Max number of different atomic species (ntypx) = 10
     Max number of k-points (npk) =  40000
     Max angular momentum in pseudopotentials (lmaxx) =  4

     IMPORTANT: XC functional enforced from input :
     Exchange-correlation= HSE
                           (   1   4  12   4   0   0   0)
     EXX-fraction              =        0.25
     Any further DFT definition will be discarded
     Please, verify this is what you really want

     EXX Screening parameter changed:    0.7257000
     EXX fraction changed:   1.00
     DD-RSH-CAM (LMODELHF) semilocal: AEXX, BEXX =   0.3234  1.0000
     DD-RSH-CAM (LMODELHF) enabled
     AEXX =  0.3234   BEXX =  1.0000   mu(bohr^-1) =  0.7257

     EXX: q-point mesh:     3    3    3
     EXX: setup a grid of 189 q-points centered on each k-point
     (k+q)-points:
   0.0000000   0.0000000   0.0000000         1    1
  -0.3333333   0.3333333  -0.3333333         3    1
   0.3333333  -0.3333333   0.3333333         3   -1
   0.3333333   0.3333333   0.3333333         3    3
   0.0000000   0.6666667   0.0000000        10    1
   0.6666667   0.0000000   0.6666667        12    1
  -0.3333333  -0.3333333  -0.3333333         3   -3
  -0.6666667   0.0000000  -0.6666667        12   -1
   0.0000000  -0.6666667   0.0000000        10   -1
  -0.3333333  -0.3333333   0.3333333         3    4
  -0.6666667   0.0000000   0.0000000        10   -5
   0.0000000  -0.6666667   0.6666667        12   -5
   0.0000000   0.0000000   0.6666667        10   13
  -0.3333333   0.3333333   0.3333333         3   -2
  -0.6666667   0.6666667   0.0000000        12   13
  -0.6666667  -0.6666667   0.0000000        12   14
   0.0000000   0.6666667   0.6666667        12   -6
   0.6666667   0.0000000  -0.6666667        12   -2
   0.3333333   0.3333333  -0.3333333         3   -4
   0.0000000   0.6666667  -0.6666667        12    5
   0.6666667   0.0000000   0.0000000        10    5
   0.6666667   0.6666667   0.0000000        12  -14
  -0.6666667   0.0000000   0.6666667        12    2
   0.0000000  -0.6666667  -0.6666667        12    6
   0.0000000   0.0000000  -0.6666667        10  -13
   0.6666667  -0.6666667   0.0000000        12  -13
   0.3333333  -0.3333333  -0.3333333         3    2
  -0.1666667   0.1666667  -0.1666667         2    1
   0.5000000  -0.5000000   0.5000000         4    1
   0.1666667  -0.1666667   0.1666667         2   -1
   0.1666667   0.5000000   0.1666667         6    3
   0.8333333  -0.1666667   0.8333333        11    1
   0.5000000   0.1666667   0.5000000         8   -3
  -0.5000000  -0.1666667  -0.5000000         8    3
  -0.8333333   0.1666667  -0.8333333        11   -1
  -0.1666667  -0.5000000  -0.1666667         6   -3
  -0.5000000  -0.1666667   0.1666667         6   -8
   0.1666667  -0.8333333   0.8333333        11   -5
  -0.1666667  -0.5000000   0.5000000         8    8
  -0.1666667   0.1666667   0.5000000         6   15
  -0.5000000   0.5000000   0.1666667         8  -15
  -0.8333333   0.8333333  -0.1666667        11   13
   0.1666667   0.5000000   0.8333333        15    7
   0.8333333  -0.1666667  -0.5000000        15   12
   0.5000000   0.1666667  -0.8333333        15    4
   0.1666667   0.5000000  -0.5000000         8   -8
  -0.1666667   0.8333333  -0.8333333        11    5
   0.5000000   0.1666667  -0.1666667         6    8
  -0.5000000  -0.1666667   0.8333333        15   -4
  -0.8333333   0.1666667   0.5000000        15  -12
  -0.1666667  -0.5000000  -0.8333333        15   -7
   0.8333333  -0.8333333   0.1666667        11  -13
   0.5000000  -0.5000000  -0.1666667         8   15
   0.1666667  -0.1666667  -0.5000000         6  -15
   0.0000000   0.3333333   0.0000000         5    1
   0.6666667  -0.3333333   0.6666667         7    1
   0.3333333   0.0000000   0.3333333         9    1
  -0.6666667  -0.3333333  -0.6666667         7    3
   0.0000000  -1.0000000   0.0000000        13    1
   0.6666667   0.3333333   0.6666667         7   -3
  -0.3333333   0.0000000  -0.3333333         9   -1
  -0.6666667   0.3333333  -0.6666667         7   -1
   0.0000000  -0.3333333   0.0000000         5   -1
  -0.3333333   0.0000000   0.3333333         9    2
   0.3333333  -0.6666667   1.0000000        14   -5
   1.0000000   0.6666667  -0.3333333        14   17
  -1.0000000  -0.6666667  -0.3333333        14   18
   0.6666667  -0.3333333  -0.6666667         7   -2
   0.3333333   0.0000000  -1.0000000        16   13
   0.3333333   0.6666667   1.0000000        14    7
  -1.0000000   0.0000000  -0.3333333        16   21
   0.6666667   0.3333333  -0.6666667         7    4
  -0.6666667  -0.3333333   0.6666667         7   -4
   1.0000000   0.0000000   0.3333333        16  -21
  -0.3333333  -0.6666667  -1.0000000        14   -7
  -0.3333333   0.0000000   1.0000000        16  -13
  -0.6666667   0.3333333   0.6666667         7    2
   1.0000000   0.6666667   0.3333333        14  -18
  -1.0000000  -0.6666667   0.3333333        14  -17
  -0.3333333   0.6666667  -1.0000000        14    5
   0.3333333   0.0000000  -0.3333333         9   -2
  -0.1666667   0.5000000  -0.1666667         6    1
   0.5000000  -0.1666667   0.5000000         8    1
   0.1666667   0.1666667   0.1666667         2    3
  -0.8333333  -0.1666667  -0.8333333        11    3
   0.8333333   0.1666667   0.8333333        11   -3
  -0.5000000  -0.5000000  -0.5000000         4    3
  -0.5000000   0.1666667  -0.5000000         8   -1
   0.1666667  -0.5000000   0.1666667         6   -1
  -0.1666667  -0.1666667  -0.1666667         2   -3
  -0.5000000   0.1666667   0.1666667         6    6
   0.1666667  -0.5000000   0.8333333        15   -5
  -0.1666667  -0.1666667   0.5000000         6  -14
  -0.1666667   0.5000000   0.5000000         8   -6
   0.5000000  -0.1666667  -0.8333333        15   -2
  -0.8333333  -0.8333333  -0.1666667        11  -16
   0.1666667   0.8333333   0.8333333        11    7
   0.8333333   0.1666667  -0.5000000        15  -11
  -0.5000000  -0.5000000   0.1666667         8   14
  -0.8333333  -0.1666667   0.5000000        15   11
  -0.1666667  -0.8333333  -0.8333333        11   -7
   0.5000000   0.5000000  -0.1666667         8  -14
  -0.5000000   0.1666667   0.8333333        15    2
   0.1666667  -0.5000000  -0.5000000         8    6
   0.8333333   0.8333333   0.1666667        11   16
  -0.1666667   0.5000000  -0.8333333        15    5
   0.5000000  -0.1666667  -0.1666667         6   -6
   0.1666667   0.1666667  -0.5000000         6   14
   0.6666667  -0.3333333   1.0000000        14    1
  -0.6666667   1.0000000  -0.3333333        14   13
   0.0000000   0.3333333   0.3333333         9   -6
   0.0000000  -1.0000000   0.3333333        16   -9
   0.6666667   0.3333333   1.0000000        14   -3
   0.3333333   0.6666667   0.6666667         7    7
   0.3333333  -0.6666667   0.6666667         7   -5
   0.0000000  -0.3333333   0.3333333         9   -5
  -0.3333333   0.0000000   0.0000000         5   -5
   0.3333333  -0.6666667  -0.6666667         7    6
   0.0000000  -0.3333333  -1.0000000        16   17
   0.6666667   1.0000000  -0.3333333        14  -14
  -0.3333333   0.6666667   0.6666667         7   -6
  -0.6666667  -1.0000000   0.3333333        14   14
   0.0000000   0.3333333   1.0000000        16  -17
  -1.0000000   0.0000000   0.0000000        13    5
  -0.3333333  -0.6666667   0.6666667         7    8
   0.3333333   0.6666667  -0.6666667         7   -8
   0.0000000   1.0000000  -0.3333333        16    9
  -0.3333333  -0.6666667  -0.6666667         7   -7
  -0.6666667  -0.3333333  -1.0000000        14    3
  -0.6666667   0.3333333  -1.0000000        14   -1
   0.0000000  -0.3333333  -0.3333333         9    6
   0.6666667  -1.0000000   0.3333333        14  -13
  -0.3333333   0.6666667  -0.6666667         7    5
   0.3333333   0.0000000   0.0000000         5    5
   0.0000000   0.3333333  -0.3333333         9    5
   0.5000000  -0.1666667   0.8333333        15    1
   0.1666667   0.1666667   0.5000000         6  -16
  -0.1666667   0.5000000   0.1666667         6   -2
   0.8333333   0.1666667  -0.8333333        11    4
  -0.5000000  -0.5000000  -0.1666667         8  -16
  -0.8333333  -0.1666667  -0.5000000        15   -9
   0.1666667  -0.5000000   0.5000000         8   -5
  -0.1666667  -0.1666667   0.1666667         2    4
  -0.5000000   0.1666667  -0.1666667         6   -5
   0.1666667  -0.5000000  -0.8333333        15    6
   0.8333333   0.8333333  -0.1666667        11  -14
  -0.5000000   0.1666667   0.5000000         8    2
   0.5000000  -0.1666667  -0.5000000         8   -2
  -0.8333333  -0.8333333   0.1666667        11   14
  -0.1666667   0.5000000   0.8333333        15   -6
  -0.1666667  -0.8333333   0.8333333        11    8
   0.5000000   0.5000000  -0.5000000         4    4
   0.1666667   0.8333333  -0.8333333        11   -8
   0.8333333   0.1666667   0.5000000        15    9
   0.5000000   0.5000000   0.1666667         8   16
  -0.8333333  -0.1666667   0.8333333        11   -4
   0.1666667  -0.5000000  -0.1666667         6    2
  -0.1666667  -0.1666667  -0.5000000         6   16
  -0.5000000   0.1666667  -0.8333333        15   -1
   0.5000000  -0.1666667   0.1666667         6    5
   0.1666667   0.1666667  -0.1666667         2   -4
  -0.1666667   0.5000000  -0.5000000         8    5
  -0.3333333  -1.0000000   0.0000000        16    1
  -0.6666667  -0.6666667  -0.3333333         7  -16
  -1.0000000  -0.3333333  -0.6666667        14   -9
  -1.0000000   0.3333333  -0.6666667        14   10
  -0.3333333  -0.3333333   0.0000000         9   14
   0.3333333  -1.0000000   0.6666667        14   22
  -0.6666667   0.6666667  -0.3333333         7   13
   0.0000000   0.0000000   0.3333333         5   13
  -0.3333333   0.3333333   0.0000000         9   13
  -0.6666667   0.6666667   0.3333333         7  -15
   0.0000000   0.0000000  -1.0000000        13   13
   0.6666667  -0.6666667  -0.3333333         7   15
  -0.3333333   1.0000000   0.6666667        14   21
  -0.6666667  -0.6666667   0.3333333         7   14
  -1.0000000  -0.3333333   0.0000000        16    5
   1.0000000   0.3333333   0.0000000        16   -5
   0.6666667   0.6666667  -0.3333333         7  -14
   0.3333333  -1.0000000  -0.6666667        14  -21
   1.0000000   0.3333333   0.6666667        14    9
   0.6666667   0.6666667   0.3333333         7   16
   0.3333333   1.0000000   0.0000000        16   -1
   0.3333333  -0.3333333   0.0000000         9  -13
   0.0000000   0.0000000  -0.3333333         5  -13
   0.6666667  -0.6666667   0.3333333         7  -13
  -0.3333333   1.0000000  -0.6666667        14  -22
   0.3333333   0.3333333   0.0000000         9  -14
   1.0000000  -0.3333333   0.6666667        14  -10

     G-vector sticks info
     --------------------
     sticks:   dense  smooth     PW     G-vecs:    dense   smooth      PW
     Sum         685     685    211                12039    12039    2085

     Using Slab Decomposition



     bravais-lattice index     =            2
     lattice parameter (alat)  =       7.9104  a.u.
     unit-cell volume          =     123.7472 (a.u.)^3
     number of atoms/cell      =            2
     number of atomic types    =            2
     number of electrons       =        16.00
     number of Kohn-Sham states=           16
     kinetic-energy cutoff     =      80.0000  Ry
     charge density cutoff     =     320.0000  Ry
     cutoff for Fock operator  =     320.0000  Ry
     scf convergence threshold =      1.0E-08
     mixing beta               =       0.7000
     number of iterations used =            8  plain     mixing
     Exchange-correlation= HSE
                           (   1   4  12   4   0   0   0)
     EXX-fraction              =        1.00

     celldm(1)=   7.910400  celldm(2)=   0.000000  celldm(3)=   0.000000
     celldm(4)=   0.000000  celldm(5)=   0.000000  celldm(6)=   0.000000

     crystal axes: (cart. coord. in units of alat)
               a(1) = (  -0.500000   0.000000   0.500000 )  
               a(2) = (   0.000000   0.500000   0.500000 )  
               a(3) = (  -0.500000   0.500000   0.000000 )  

     reciprocal axes: (cart. coord. in units 2 pi/alat)
               b(1) = ( -1.000000 -1.000000  1.000000 )  
               b(2) = (  1.000000  1.000000  1.000000 )  
               b(3) = ( -1.000000  1.000000 -1.000000 )  


     PseudoPot. # 1 for Mg read from file:
     ../../../../pseudos/Mg_ONCV_PBE-1.2.upf
     MD5 check sum: 330956729b1f868fdecd9f5113f6a961
     Pseudo is Norm-conserving, Zval = 10.0
     Generated using ONCVPSP code by D. R. Hamann
     Using radial grid of  602 points,  4 beta functions with: 
                l(1) =   0
                l(2) =   0
                l(3) =   1
                l(4) =   1

     PseudoPot. # 2 for O  read from file:
     ../../../../pseudos/O_ONCV_PBE-1.2.upf
     MD5 check sum: e36c48deb68f4e355fffe4602be2c42c
     Pseudo is Norm-conserving, Zval =  6.0
     Generated using ONCVPSP code by D. R. Hamann
     Using radial grid of  602 points,  4 beta functions with: 
                l(1) =   0
                l(2) =   0
                l(3) =   1
                l(4) =   1

     atomic species   valence    mass     pseudopotential
     Mg               10.00    24.30500     Mg( 1.00)
     O                 6.00    15.99900     O ( 1.00)

     48 Sym. Ops., with inversion, found


                                    s                        frac. trans.

      isym =  1     identity                                     

 cryst.   s( 1) = (     1          0          0      )
                  (     0          1          0      )
                  (     0          0          1      )

 cart.    s( 1) = (  1.0000000  0.0000000  0.0000000 )
                  (  0.0000000  1.0000000  0.0000000 )
                  (  0.0000000  0.0000000  1.0000000 )


      isym =  2     180 deg rotation - cart. axis [0,0,1]        

 cryst.   s( 2) = (     0          1         -1      )
                  (     1          0         -1      )
                  (     0          0         -1      )

 cart.    s( 2) = ( -1.0000000  0.0000000  0.0000000 )
                  (  0.0000000 -1.0000000  0.0000000 )
                  (  0.0000000  0.0000000  1.0000000 )


      isym =  3     180 deg rotation - cart. axis [0,1,0]        

 cryst.   s( 3) = (    -1          0          0      )
                  (    -1          0          1      )
                  (    -1          1          0      )

 cart.    s( 3) = ( -1.0000000  0.0000000  0.0000000 )
                  (  0.0000000  1.0000000  0.0000000 )
                  (  0.0000000  0.0000000 -1.0000000 )


      isym =  4     180 deg rotation - cart. axis [1,0,0]        

 cryst.   s( 4) = (     0         -1          1      )
                  (     0         -1          0      )
                  (     1         -1          0      )

 cart.    s( 4) = (  1.0000000  0.0000000  0.0000000 )
                  (  0.0000000 -1.0000000  0.0000000 )
                  (  0.0000000  0.0000000 -1.0000000 )


      isym =  5     180 deg rotation - cart. axis [1,1,0]        

 cryst.   s( 5) = (     0         -1          0      )
                  (    -1          0          0      )
                  (     0          0         -1      )

 cart.    s( 5) = (  0.0000000  1.0000000  0.0000000 )
                  (  1.0000000  0.0000000  0.0000000 )
                  (  0.0000000  0.0000000 -1.0000000 )


      isym =  6     180 deg rotation - cart. axis [1,-1,0]       

 cryst.   s( 6) = (    -1          0          1      )
                  (     0         -1          1      )
                  (     0          0          1      )

 cart.    s( 6) = (  0.0000000 -1.0000000  0.0000000 )
                  ( -1.0000000  0.0000000  0.0000000 )
                  (  0.0000000  0.0000000 -1.0000000 )


      isym =  7      90 deg rotation - cart. axis [0,0,-1]       

 cryst.   s( 7) = (     0          1          0      )
                  (     0          1         -1      )
                  (    -1          1          0      )

 cart.    s( 7) = (  0.0000000  1.0000000  0.0000000 )
                  ( -1.0000000  0.0000000  0.0000000 )
                  (  0.0000000  0.0000000  1.0000000 )


      isym =  8      90 deg rotation - cart. axis [0,0,1]        

 cryst.   s( 8) = (     1          0         -1      )
                  (     1          0          0      )
                  (     1         -1          0      )

 cart.    s( 8) = (  0.0000000 -1.0000000  0.0000000 )
                  (  1.0000000  0.0000000  0.0000000 )
                  (  0.0000000  0.0000000  1.0000000 )


      isym =  9     180 deg rotation - cart. axis [1,0,1]        

 cryst.   s( 9) = (    -1          0          0      )
                  (     0          0         -1      )
                  (     0         -1          0      )

 cart.    s( 9) = (  0.0000000  0.0000000  1.0000000 )
                  (  0.0000000 -1.0000000  0.0000000 )
                  (  1.0000000  0.0000000  0.0000000 )


      isym = 10     180 deg rotation - cart. axis [-1,0,1]       

 cryst.   s(10) = (     1          0          0      )
                  (     1         -1          0      )
                  (     1          0         -1      )

 cart.    s(10) = (  0.0000000  0.0000000 -1.0000000 )
                  (  0.0000000 -1.0000000  0.0000000 )
                  ( -1.0000000  0.0000000  0.0000000 )


      isym = 11      90 deg rotation - cart. axis [0,1,0]        

 cryst.   s(11) = (     0          1         -1      )
                  (    -1          1          0      )
                  (     0          1          0      )

 cart.    s(11) = (  0.0000000  0.0000000  1.0000000 )
                  (  0.0000000  1.0000000  0.0000000 )
                  ( -1.0000000  0.0000000  0.0000000 )


      isym = 12      90 deg rotation - cart. axis [0,-1,0]       

 cryst.   s(12) = (     0         -1          1      )
                  (     0          0          1      )
                  (    -1          0          1      )

 cart.    s(12) = (  0.0000000  0.0000000 -1.0000000 )
                  (  0.0000000  1.0000000  0.0000000 )
                  (  1.0000000  0.0000000  0.0000000 )


      isym = 13     180 deg rotation - cart. axis [0,1,1]        

 cryst.   s(13) = (    -1          1          0      )
                  (     0          1          0      )
                  (     0          1         -1      )

 cart.    s(13) = ( -1.0000000  0.0000000  0.0000000 )
                  (  0.0000000  0.0000000  1.0000000 )
                  (  0.0000000  1.0000000  0.0000000 )


      isym = 14     180 deg rotation - cart. axis [0,1,-1]       

 cryst.   s(14) = (     0          0         -1      )
                  (     0         -1          0      )
                  (    -1          0          0      )

 cart.    s(14) = ( -1.0000000  0.0000000  0.0000000 )
                  (  0.0000000  0.0000000 -1.0000000 )
                  (  0.0000000 -1.0000000  0.0000000 )


      isym = 15      90 deg rotation - cart. axis [-1,0,0]       

 cryst.   s(15) = (     0          0          1      )
                  (    -1          0          1      )
                  (     0         -1          1      )

 cart.    s(15) = (  1.0000000  0.0000000  0.0000000 )
                  (  0.0000000  0.0000000  1.0000000 )
                  (  0.0000000 -1.0000000  0.0000000 )


      isym = 16      90 deg rotation - cart. axis [1,0,0]        

 cryst.   s(16) = (     1         -1          0      )
                  (     1          0         -1      )
                  (     1          0          0      )

 cart.    s(16) = (  1.0000000  0.0000000  0.0000000 )
                  (  0.0000000  0.0000000 -1.0000000 )
                  (  0.0000000  1.0000000  0.0000000 )


      isym = 17     120 deg rotation - cart. axis [-1,-1,-1]     

 cryst.   s(17) = (    -1          0          1      )
                  (    -1          1          0      )
                  (    -1          0          0      )

 cart.    s(17) = (  0.0000000  1.0000000  0.0000000 )
                  (  0.0000000  0.0000000  1.0000000 )
                  (  1.0000000  0.0000000  0.0000000 )


      isym = 18     120 deg rotation - cart. axis [-1,1,1]       

 cryst.   s(18) = (     0          1          0      )
                  (     0          0          1      )
                  (     1          0          0      )

 cart.    s(18) = (  0.0000000 -1.0000000  0.0000000 )
                  (  0.0000000  0.0000000  1.0000000 )
                  ( -1.0000000  0.0000000  0.0000000 )


      isym = 19     120 deg rotation - cart. axis [1,1,-1]       

 cryst.   s(19) = (     1          0         -1      )
                  (     0          0         -1      )
                  (     0          1         -1      )

 cart.    s(19) = (  0.0000000  1.0000000  0.0000000 )
                  (  0.0000000  0.0000000 -1.0000000 )
                  ( -1.0000000  0.0000000  0.0000000 )


      isym = 20     120 deg rotation - cart. axis [1,-1,1]       

 cryst.   s(20) = (     0         -1          0      )
                  (     1         -1          0      )
                  (     0         -1          1      )

 cart.    s(20) = (  0.0000000 -1.0000000  0.0000000 )
                  (  0.0000000  0.0000000 -1.0000000 )
                  (  1.0000000  0.0000000  0.0000000 )


      isym = 21     120 deg rotation - cart. axis [1,1,1]        

 cryst.   s(21) = (     0          0         -1      )
                  (     0          1         -1      )
                  (     1          0         -1      )

 cart.    s(21) = (  0.0000000  0.0000000  1.0000000 )
                  (  1.0000000  0.0000000  0.0000000 )
                  (  0.0000000  1.0000000  0.0000000 )


      isym = 22     120 deg rotation - cart. axis [-1,1,-1]      

 cryst.   s(22) = (    -1          1          0      )
                  (    -1          0          0      )
                  (    -1          0          1      )

 cart.    s(22) = (  0.0000000  0.0000000  1.0000000 )
                  ( -1.0000000  0.0000000  0.0000000 )
                  (  0.0000000 -1.0000000  0.0000000 )


      isym = 23     120 deg rotation - cart. axis [1,-1,-1]      

 cryst.   s(23) = (     0          0          1      )
                  (     1          0          0      )
                  (     0          1          0      )

 cart.    s(23) = (  0.0000000  0.0000000 -1.0000000 )
                  ( -1.0000000  0.0000000  0.0000000 )
                  (  0.0000000  1.0000000  0.0000000 )


      isym = 24     120 deg rotation - cart. axis [-1,-1,1]      

 cryst.   s(24) = (     1         -1          0      )
                  (     0         -1          1      )
                  (     0         -1          0      )

 cart.    s(24) = (  0.0000000  0.0000000 -1.0000000 )
                  (  1.0000000  0.0000000  0.0000000 )
                  (  0.0000000 -1.0000000  0.0000000 )


      isym = 25     inversion                                    

 cryst.   s(25) = (    -1          0          0      )
                  (     0         -1          0      )
                  (     0          0         -1      )

 cart.    s(25) = ( -1.0000000  0.0000000  0.0000000 )
                  (  0.0000000 -1.0000000  0.0000000 )
                  (  0.0000000  0.0000000 -1.0000000 )


      isym = 26     inv. 180 deg rotation - cart. axis [0,0,1]   

 cryst.   s(26) = (     0         -1          1      )
                  (    -1          0          1      )
                  (     0          0          1      )

 cart.    s(26) = (  1.0000000  0.0000000  0.0000000 )
                  (  0.0000000  1.0000000  0.0000000 )
                  (  0.0000000  0.0000000 -1.0000000 )


      isym = 27     inv. 180 deg rotation - cart. axis [0,1,0]   

 cryst.   s(27) = (     1          0          0      )
                  (     1          0         -1      )
                  (     1         -1          0      )

 cart.    s(27) = (  1.0000000  0.0000000  0.0000000 )
                  (  0.0000000 -1.0000000  0.0000000 )
                  (  0.0000000  0.0000000  1.0000000 )


      isym = 28     inv. 180 deg rotation - cart. axis [1,0,0]   

 cryst.   s(28) = (     0          1         -1      )
                  (     0          1          0      )
                  (    -1          1          0      )

 cart.    s(28) = ( -1.0000000  0.0000000  0.0000000 )
                  (  0.0000000  1.0000000  0.0000000 )
                  (  0.0000000  0.0000000  1.0000000 )


      isym = 29     inv. 180 deg rotation - cart. axis [1,1,0]   

 cryst.   s(29) = (     0          1          0      )
                  (     1          0          0      )
                  (     0          0          1      )

 cart.    s(29) = (  0.0000000 -1.0000000  0.0000000 )
                  ( -1.0000000  0.0000000  0.0000000 )
                  (  0.0000000  0.0000000  1.0000000 )


      isym = 30     inv. 180 deg rotation - cart. axis [1,-1,0]  

 cryst.   s(30) = (     1          0         -1      )
                  (     0          1         -1      )
                  (     0          0         -1      )

 cart.    s(30) = (  0.0000000  1.0000000  0.0000000 )
                  (  1.0000000  0.0000000  0.0000000 )
                  (  0.0000000  0.0000000  1.0000000 )


      isym = 31     inv.  90 deg rotation - cart. axis [0,0,-1]  

 cryst.   s(31) = (     0         -1          0      )
                  (     0         -1          1      )
                  (     1         -1          0      )

 cart.    s(31) = (  0.0000000 -1.0000000  0.0000000 )
                  (  1.0000000  0.0000000  0.0000000 )
                  (  0.0000000  0.0000000 -1.0000000 )


      isym = 32     inv.  90 deg rotation - cart. axis [0,0,1]   

 cryst.   s(32) = (    -1          0          1      )
                  (    -1          0          0      )
                  (    -1          1          0      )

 cart.    s(32) = (  0.0000000  1.0000000  0.0000000 )
                  ( -1.0000000  0.0000000  0.0000000 )
                  (  0.0000000  0.0000000 -1.0000000 )


      isym = 33     inv. 180 deg rotation - cart. axis [1,0,1]   

 cryst.   s(33) = (     1          0          0      )
                  (     0          0          1      )
                  (     0          1          0      )

 cart.    s(33) = (  0.0000000  0.0000000 -1.0000000 )
                  (  0.0000000  1.0000000  0.0000000 )
                  ( -1.0000000  0.0000000  0.0000000 )


      isym = 34     inv. 180 deg rotation - cart. axis [-1,0,1]  

 cryst.   s(34) = (    -1          0          0      )
                  (    -1          1          0      )
                  (    -1          0          1      )

 cart.    s(34) = (  0.0000000  0.0000000  1.0000000 )
                  (  0.0000000  1.0000000  0.0000000 )
                  (  1.0000000  0.0000000  0.0000000 )


      isym = 35     inv.  90 deg rotation - cart. axis [0,1,0]   

 cryst.   s(35) = (     0         -1          1      )
                  (     1         -1          0      )
                  (     0         -1          0      )

 cart.    s(35) = (  0.0000000  0.0000000 -1.0000000 )
                  (  0.0000000 -1.0000000  0.0000000 )
                  (  1.0000000  0.0000000  0.0000000 )


      isym = 36     inv.  90 deg rotation - cart. axis [0,-1,0]  

 cryst.   s(36) = (     0          1         -1      )
                  (     0          0         -1      )
                  (     1          0         -1      )

 cart.    s(36) = (  0.0000000  0.0000000  1.0000000 )
                  (  0.0000000 -1.0000000  0.0000000 )
                  ( -1.0000000  0.0000000  0.0000000 )


      isym = 37     inv. 180 deg rotation - cart. axis [0,1,1]   

 cryst.   s(37) = (     1         -1          0      )
                  (     0         -1          0      )
                  (     0         -1          1      )

 cart.    s(37) = (  1.0000000  0.0000000  0.0000000 )
                  (  0.0000000  0.0000000 -1.0000000 )
                  (  0.0000000 -1.0000000  0.0000000 )


      isym = 38     inv. 180 deg rotation - cart. axis [0,1,-1]  

 cryst.   s(38) = (     0          0          1      )
                  (     0          1          0      )
                  (     1          0          0      )

 cart.    s(38) = (  1.0000000  0.0000000  0.0000000 )
                  (  0.0000000  0.0000000  1.0000000 )
                  (  0.0000000  1.0000000  0.0000000 )


      isym = 39     inv.  90 deg rotation - cart. axis [-1,0,0]  

 cryst.   s(39) = (     0          0         -1      )
                  (     1          0         -1      )
                  (     0          1         -1      )

 cart.    s(39) = ( -1.0000000  0.0000000  0.0000000 )
                  (  0.0000000  0.0000000 -1.0000000 )
                  (  0.0000000  1.0000000  0.0000000 )


      isym = 40     inv.  90 deg rotation - cart. axis [1,0,0]   

 cryst.   s(40) = (    -1          1          0      )
                  (    -1          0          1      )
                  (    -1          0          0      )

 cart.    s(40) = ( -1.0000000  0.0000000  0.0000000 )
                  (  0.0000000  0.0000000  1.0000000 )
                  (  0.0000000 -1.0000000  0.0000000 )


      isym = 41     inv. 120 deg rotation - cart. axis [-1,-1,-1]

 cryst.   s(41) = (     1          0         -1      )
                  (     1         -1          0      )
                  (     1          0          0      )

 cart.    s(41) = (  0.0000000 -1.0000000  0.0000000 )
                  (  0.0000000  0.0000000 -1.0000000 )
                  ( -1.0000000  0.0000000  0.0000000 )


      isym = 42     inv. 120 deg rotation - cart. axis [-1,1,1]  

 cryst.   s(42) = (     0         -1          0      )
                  (     0          0         -1      )
                  (    -1          0          0      )

 cart.    s(42) = (  0.0000000  1.0000000  0.0000000 )
                  (  0.0000000  0.0000000 -1.0000000 )
                  (  1.0000000  0.0000000  0.0000000 )


      isym = 43     inv. 120 deg rotation - cart. axis [1,1,-1]  

 cryst.   s(43) = (    -1          0          1      )
                  (     0          0          1      )
                  (     0         -1          1      )

 cart.    s(43) = (  0.0000000 -1.0000000  0.0000000 )
                  (  0.0000000  0.0000000  1.0000000 )
                  (  1.0000000  0.0000000  0.0000000 )


      isym = 44     inv. 120 deg rotation - cart. axis [1,-1,1]  

 cryst.   s(44) = (     0          1          0      )
                  (    -1          1          0      )
                  (     0          1         -1      )

 cart.    s(44) = (  0.0000000  1.0000000  0.0000000 )
                  (  0.0000000  0.0000000  1.0000000 )
                  ( -1.0000000  0.0000000  0.0000000 )


      isym = 45     inv. 120 deg rotation - cart. axis [1,1,1]   

 cryst.   s(45) = (     0          0          1      )
                  (     0         -1          1      )
                  (    -1          0          1      )

 cart.    s(45) = (  0.0000000  0.0000000 -1.0000000 )
                  ( -1.0000000  0.0000000  0.0000000 )
                  (  0.0000000 -1.0000000  0.0000000 )


      isym = 46     inv. 120 deg rotation - cart. axis [-1,1,-1] 

 cryst.   s(46) = (     1         -1          0      )
                  (     1          0          0      )
                  (     1          0         -1      )

 cart.    s(46) = (  0.0000000  0.0000000 -1.0000000 )
                  (  1.0000000  0.0000000  0.0000000 )
                  (  0.0000000  1.0000000  0.0000000 )


      isym = 47     inv. 120 deg rotation - cart. axis [1,-1,-1] 

 cryst.   s(47) = (     0          0         -1      )
                  (    -1          0          0      )
                  (     0         -1          0      )

 cart.    s(47) = (  0.0000000  0.0000000  1.0000000 )
                  (  1.0000000  0.0000000  0.0000000 )
                  (  0.0000000 -1.0000000  0.0000000 )


      isym = 48     inv. 120 deg rotation - cart. axis [-1,-1,1] 

 cryst.   s(48) = (    -1          1          0      )
                  (     0          1         -1      )
                  (     0          1          0      )

 cart.    s(48) = (  0.0000000  0.0000000  1.0000000 )
                  ( -1.0000000  0.0000000  0.0000000 )
                  (  0.0000000  1.0000000  0.0000000 )


     point group O_h (m-3m) 
     there are 10 classes
     the character table:

       E     8C3   3C2   6C4   6C2'  i     8S6   3s_h  6S4   6s_d 
A_1g   1.00  1.00  1.00  1.00  1.00  1.00  1.00  1.00  1.00  1.00
A_2g   1.00  1.00  1.00 -1.00 -1.00  1.00  1.00  1.00 -1.00 -1.00
E_g    2.00 -1.00  2.00  0.00  0.00  2.00 -1.00  2.00  0.00  0.00
T_1g   3.00  0.00 -1.00  1.00 -1.00  3.00  0.00 -1.00  1.00 -1.00
T_2g   3.00  0.00 -1.00 -1.00  1.00  3.00  0.00 -1.00 -1.00  1.00
A_1u   1.00  1.00  1.00  1.00  1.00 -1.00 -1.00 -1.00 -1.00 -1.00
A_2u   1.00  1.00  1.00 -1.00 -1.00 -1.00 -1.00 -1.00  1.00  1.00
E_u    2.00 -1.00  2.00  0.00  0.00 -2.00  1.00 -2.00  0.00  0.00
T_1u   3.00  0.00 -1.00  1.00 -1.00 -3.00  0.00  1.00 -1.00  1.00
T_2u   3.00  0.00 -1.00 -1.00  1.00 -3.00  0.00  1.00  1.00 -1.00

     the symmetry operations in each class and the name of the first element:

     E        1
          identity                                               
     8C3     17   19   20   18   24   21   22   23
          120 deg rotation - cart. axis [-1,-1,-1]               
     3C2      2    4    3
          180 deg rotation - cart. axis [0,0,1]                  
     6C4      7    8   15   16   12   11
           90 deg rotation - cart. axis [0,0,-1]                 
     6C2'     5    6   14   13   10    9
          180 deg rotation - cart. axis [1,1,0]                  
     i       25
          inversion                                              
     8S6     41   43   44   42   48   45   46   47
          inv. 120 deg rotation - cart. axis [-1,-1,-1]          
     3s_h    26   28   27
          inv. 180 deg rotation - cart. axis [0,0,1]             
     6S4     31   32   39   40   36   35
          inv.  90 deg rotation - cart. axis [0,0,-1]            
     6s_d    29   30   38   37   34   33
          inv. 180 deg rotation - cart. axis [1,1,0]             

   Cartesian axes

     site n.     atom                  positions (alat units)
         1        Mg     tau(   1) = (   0.0000000   0.0000000   0.0000000  )
         2        O      tau(   2) = (  -0.5000000   0.5000000   0.5000000  )

   Crystallographic axes

     site n.     atom                  positions (cryst. coord.)
         1        Mg     tau(   1) = (  0.0000000  0.0000000  0.0000000  )
         2        O      tau(   2) = (  0.5000000  0.5000000  0.5000000  )

     number of k points=    16
                       cart. coord. in units 2pi/alat
        k(    1) = (   0.0000000   0.0000000   0.0000000), wk =   0.0092593
        k(    2) = (  -0.1666667   0.1666667  -0.1666667), wk =   0.0740741
        k(    3) = (  -0.3333333   0.3333333  -0.3333333), wk =   0.0740741
        k(    4) = (   0.5000000  -0.5000000   0.5000000), wk =   0.0370370
        k(    5) = (   0.0000000   0.3333333   0.0000000), wk =   0.0555556
        k(    6) = (  -0.1666667   0.5000000  -0.1666667), wk =   0.2222222
        k(    7) = (   0.6666667  -0.3333333   0.6666667), wk =   0.2222222
        k(    8) = (   0.5000000  -0.1666667   0.5000000), wk =   0.2222222
        k(    9) = (   0.3333333   0.0000000   0.3333333), wk =   0.1111111
        k(   10) = (   0.0000000   0.6666667   0.0000000), wk =   0.0555556
        k(   11) = (   0.8333333  -0.1666667   0.8333333), wk =   0.2222222
        k(   12) = (   0.6666667  -0.0000000   0.6666667), wk =   0.1111111
        k(   13) = (   0.0000000  -1.0000000   0.0000000), wk =   0.0277778
        k(   14) = (   0.6666667  -0.3333333   1.0000000), wk =   0.2222222
        k(   15) = (   0.5000000  -0.1666667   0.8333333), wk =   0.2222222
        k(   16) = (  -0.3333333  -1.0000000   0.0000000), wk =   0.1111111

                       cryst. coord.
        k(    1) = (   0.0000000   0.0000000   0.0000000), wk =   0.0092593
        k(    2) = (   0.0000000   0.0000000   0.1666667), wk =   0.0740741
        k(    3) = (   0.0000000   0.0000000   0.3333333), wk =   0.0740741
        k(    4) = (   0.0000000   0.0000000  -0.5000000), wk =   0.0370370
        k(    5) = (   0.0000000   0.1666667   0.1666667), wk =   0.0555556
        k(    6) = (   0.0000000   0.1666667   0.3333333), wk =   0.2222222
        k(    7) = (   0.0000000   0.1666667  -0.5000000), wk =   0.2222222
        k(    8) = (   0.0000000   0.1666667  -0.3333333), wk =   0.2222222
        k(    9) = (   0.0000000   0.1666667  -0.1666667), wk =   0.1111111
        k(   10) = (   0.0000000   0.3333333   0.3333333), wk =   0.0555556
        k(   11) = (   0.0000000   0.3333333  -0.5000000), wk =   0.2222222
        k(   12) = (   0.0000000   0.3333333  -0.3333333), wk =   0.1111111
        k(   13) = (   0.0000000  -0.5000000  -0.5000000), wk =   0.0277778
        k(   14) = (   0.1666667   0.3333333  -0.5000000), wk =   0.2222222
        k(   15) = (   0.1666667   0.3333333  -0.3333333), wk =   0.2222222
        k(   16) = (   0.1666667  -0.5000000  -0.3333333), wk =   0.1111111

     Dense  grid:    12039 G-vectors     FFT dimensions: (  32,  32,  32)

     Dynamical RAM for                 wfc:       0.36 MB

     Dynamical RAM for     wfc (w. buffer):       6.20 MB

     Dynamical RAM for                 EXX:    1110.48 MB

     Dynamical RAM for           str. fact:       0.37 MB

     Dynamical RAM for           local pot:       0.00 MB

     Dynamical RAM for          nlocal pot:       0.36 MB

     Dynamical RAM for                qrad:       0.91 MB

     Dynamical RAM for          rho,v,vnew:       1.30 MB

     Dynamical RAM for               rhoin:       0.43 MB

     Dynamical RAM for            rho*nmix:       2.94 MB

     Dynamical RAM for           G-vectors:       0.78 MB

     Dynamical RAM for          h,s,v(r/c):       0.05 MB

     Dynamical RAM for          <psi|beta>:       0.00 MB

     Dynamical RAM for                 psi:       0.73 MB

     Dynamical RAM for                hpsi:       0.73 MB

     Dynamical RAM for      wfcinit/wfcrot:       0.74 MB

     Estimated static dynamical RAM per process >       1.10 GB

     Estimated max dynamical RAM per process >       1.10 GB
     EXX: ACE will be initialized later

     Initial potential from superposition of free atoms

     starting charge      15.9336, renormalised to      16.0000
     Starting wfcs are random

     total cpu time spent up to now is        0.5 secs

     Self-consistent Calculation

     iteration #  1     ecut=    80.00 Ry     beta= 0.70
     Davidson diagonalization with overlap

---- Real-time Memory Report at c_bands before calling an iterative solver
            32 MiB given to the printing process from OS
             0 MiB allocation reported by mallinfo(arena+hblkhd)
         12418 MiB available memory on the node where the printing process lives
------------------
     ethr =  1.00E-02,  avg # of iterations =  7.6

     total cpu time spent up to now is        0.9 secs

     total energy              =    -140.69811897 Ry
     estimated scf accuracy    <       0.36425051 Ry

     iteration #  2     ecut=    80.00 Ry     beta= 0.70
     Davidson diagonalization with overlap

---- Real-time Memory Report at c_bands before calling an iterative solver
            37 MiB given to the printing process from OS
             0 MiB allocation reported by mallinfo(arena+hblkhd)
         12413 MiB available memory on the node where the printing process lives
------------------
     ethr =  2.28E-03,  avg # of iterations =  2.2

     total cpu time spent up to now is        1.1 secs

     total energy              =    -140.79364885 Ry
     estimated scf accuracy    <       0.29364163 Ry

     iteration #  3     ecut=    80.00 Ry     beta= 0.70
     Davidson diagonalization with overlap

---- Real-time Memory Report at c_bands before calling an iterative solver
            38 MiB given to the printing process from OS
             0 MiB allocation reported by mallinfo(arena+hblkhd)
         12413 MiB available memory on the node where the printing process lives
------------------
     ethr =  1.84E-03,  avg # of iterations =  1.8

     total cpu time spent up to now is        1.3 secs

     total energy              =    -140.85155647 Ry
     estimated scf accuracy    <       0.00149095 Ry

     iteration #  4     ecut=    80.00 Ry     beta= 0.70
     Davidson diagonalization with overlap

---- Real-time Memory Report at c_bands before calling an iterative solver
            38 MiB given to the printing process from OS
             0 MiB allocation reported by mallinfo(arena+hblkhd)
         12412 MiB available memory on the node where the printing process lives
------------------
     ethr =  9.32E-06,  avg # of iterations =  5.3

     total cpu time spent up to now is        1.5 secs

     total energy              =    -140.85188476 Ry
     estimated scf accuracy    <       0.00001516 Ry

     iteration #  5     ecut=    80.00 Ry     beta= 0.70
     Davidson diagonalization with overlap

---- Real-time Memory Report at c_bands before calling an iterative solver
            38 MiB given to the printing process from OS
             0 MiB allocation reported by mallinfo(arena+hblkhd)
         12412 MiB available memory on the node where the printing process lives
------------------
     ethr =  9.48E-08,  avg # of iterations =  2.1

     total cpu time spent up to now is        1.7 secs

     total energy              =    -140.85188766 Ry
     estimated scf accuracy    <       0.00000127 Ry

     iteration #  6     ecut=    80.00 Ry     beta= 0.70
     Davidson diagonalization with overlap

---- Real-time Memory Report at c_bands before calling an iterative solver
            39 MiB given to the printing process from OS
             0 MiB allocation reported by mallinfo(arena+hblkhd)
         12412 MiB available memory on the node where the printing process lives
------------------
     ethr =  7.95E-09,  avg # of iterations =  2.0

     total cpu time spent up to now is        1.9 secs

     total energy              =    -140.85188790 Ry
     estimated scf accuracy    <       0.00000011 Ry

     iteration #  7     ecut=    80.00 Ry     beta= 0.70
     Davidson diagonalization with overlap

---- Real-time Memory Report at c_bands before calling an iterative solver
            39 MiB given to the printing process from OS
             0 MiB allocation reported by mallinfo(arena+hblkhd)
         12411 MiB available memory on the node where the printing process lives
------------------
     ethr =  7.13E-10,  avg # of iterations =  1.1

     total cpu time spent up to now is        2.1 secs

     End of self-consistent calculation

          k = 0.0000 0.0000 0.0000 (  1459 PWs)   bands (ev):

   -63.2993 -30.0692 -30.0692 -30.0692  -8.2978   9.0035   9.0035   9.0035
    13.9554  25.0128  25.0128  25.0128  28.8647  30.8680  30.8680  33.7231

     occupation numbers 
     1.0000   1.0000   1.0000   1.0000   1.0000   1.0000   1.0000   1.0000
     0.0000   0.0000   0.0000   0.0000   0.0000   0.0000   0.0000   0.0000

          k =-0.1667 0.1667-0.1667 (  1489 PWs)   bands (ev):

   -63.2972 -30.0924 -30.0715 -30.0715  -7.9974   7.4922   8.8264   8.8264
    15.3658  22.6328  25.5973  25.5973  29.5624  29.5624  31.6020  34.5966

     occupation numbers 
     1.0000   1.0000   1.0000   1.0000   1.0000   1.0000   1.0000   1.0000
     0.0000   0.0000   0.0000   0.0000   0.0000   0.0000   0.0000   0.0000

          k =-0.3333 0.3333-0.3333 (  1501 PWs)   bands (ev):

   -63.2925 -30.1382 -30.0762 -30.0762  -7.3222   5.2988   8.4950   8.4950
    16.8523  21.5079  25.8364  25.8364  30.2315  30.2315  30.8199  38.6176

     occupation numbers 
     1.0000   1.0000   1.0000   1.0000   1.0000   1.0000   1.0000   1.0000
     0.0000   0.0000   0.0000   0.0000   0.0000   0.0000   0.0000   0.0000

          k = 0.5000-0.5000 0.5000 (  1502 PWs)   bands (ev):

   -63.2902 -30.1610 -30.0785 -30.0785  -6.9337   4.3303   8.3393   8.3393
    17.0524  21.8309  25.5764  25.5764  30.2731  31.8470  31.8470  37.9670

     occupation numbers 
     1.0000   1.0000   1.0000   1.0000   1.0000   1.0000   1.0000   1.0000
     0.0000   0.0000   0.0000   0.0000   0.0000   0.0000   0.0000   0.0000

          k = 0.0000 0.3333 0.0000 (  1491 PWs)   bands (ev):

   -63.2964 -30.0906 -30.0768 -30.0768  -7.9075   7.4146   8.6118   8.6118
    15.8500  21.8555  25.9027  25.9027  26.9872  31.7303  33.9175  35.0805

     occupation numbers 
     1.0000   1.0000   1.0000   1.0000   1.0000   1.0000   1.0000   1.0000
     0.0000   0.0000   0.0000   0.0000   0.0000   0.0000   0.0000   0.0000

          k =-0.1667 0.5000-0.1667 (  1484 PWs)   bands (ev):

   -63.2924 -30.1236 -30.0829 -30.0825  -7.3766   5.8957   8.1279   8.2789
    17.5098  20.6772  24.5817  26.4582  27.6328  32.1422  34.2728  38.0717

     occupation numbers 
     1.0000   1.0000   1.0000   1.0000   1.0000   1.0000   1.0000   1.0000
     0.0000   0.0000   0.0000   0.0000   0.0000   0.0000   0.0000   0.0000

          k = 0.6667-0.3333 0.6667 (  1493 PWs)   bands (ev):

   -63.2893 -30.1501 -30.0911 -30.0838  -6.8847   4.7887   7.5472   8.1514
    18.1564  21.4031  23.5127  26.2670  29.2801  32.7309  33.7420  38.5573

     occupation numbers 
     1.0000   1.0000   1.0000   1.0000   1.0000   1.0000   1.0000   1.0000
     0.0000   0.0000   0.0000   0.0000   0.0000   0.0000   0.0000   0.0000

          k = 0.5000-0.1667 0.5000 (  1499 PWs)   bands (ev):

   -63.2902 -30.1433 -30.0946 -30.0785  -7.0005   5.0692   7.4350   8.3399
    18.1542  21.2907  23.7488  26.3783  29.9881  30.6102  33.6644  39.0540

     occupation numbers 
     1.0000   1.0000   1.0000   1.0000   1.0000   1.0000   1.0000   1.0000
     0.0000   0.0000   0.0000   0.0000   0.0000   0.0000   0.0000   0.0000

          k = 0.3333 0.0000 0.3333 (  1492 PWs)   bands (ev):

   -63.2940 -30.1140 -30.0854 -30.0724  -7.5781   6.3625   8.0557   8.6803
    16.9002  21.3592  25.0051  26.8938  27.5026  30.4765  33.6671  36.1993

     occupation numbers 
     1.0000   1.0000   1.0000   1.0000   1.0000   1.0000   1.0000   1.0000
     0.0000   0.0000   0.0000   0.0000   0.0000   0.0000   0.0000   0.0000

          k = 0.0000 0.6667 0.0000 (  1479 PWs)   bands (ev):

   -63.2900 -30.1294 -30.0920 -30.0920  -7.1100   5.5382   7.9378   7.9378
    18.5305  19.1390  23.1326  27.5117  27.5117  34.1479  36.4868  38.8246

     occupation numbers 
     1.0000   1.0000   1.0000   1.0000   1.0000   1.0000   1.0000   1.0000
     0.0000   0.0000   0.0000   0.0000   0.0000   0.0000   0.0000   0.0000

          k = 0.8333-0.1667 0.8333 (  1501 PWs)   bands (ev):

   -63.2878 -30.1397 -30.1051 -30.0944  -6.7714   5.1885   7.0867   7.8039
    18.9228  20.0318  22.1696  27.6151  27.7931  35.3040  36.2075  38.4165

     occupation numbers 
     1.0000   1.0000   1.0000   1.0000   1.0000   1.0000   1.0000   1.0000
     0.0000   0.0000   0.0000   0.0000   0.0000   0.0000   0.0000   0.0000

          k = 0.6667-0.0000 0.6667 (  1516 PWs)   bands (ev):

   -63.2880 -30.1289 -30.1242 -30.0877  -6.7168   5.7459   5.9088   7.9915
    19.4626  21.3773  21.7986  27.0819  28.1529  32.4996  36.9957  37.6158

     occupation numbers 
     1.0000   1.0000   1.0000   1.0000   1.0000   1.0000   1.0000   1.0000
     0.0000   0.0000   0.0000   0.0000   0.0000   0.0000   0.0000   0.0000

          k = 0.0000-1.0000 0.0000 (  1524 PWs)   bands (ev):

   -63.2873 -30.1469 -30.0997 -30.0997  -6.7066   4.8838   7.6424   7.6424
    18.2137  19.2502  22.2960  28.2902  28.2902  34.8488  36.3618  40.2602

     occupation numbers 
     1.0000   1.0000   1.0000   1.0000   1.0000   1.0000   1.0000   1.0000
     0.0000   0.0000   0.0000   0.0000   0.0000   0.0000   0.0000   0.0000

          k = 0.6667-0.3333 1.0000 (  1492 PWs)   bands (ev):

   -63.2893 -30.1343 -30.1027 -30.0866  -6.9471   5.4317   7.1338   7.9745
    19.2192  20.2059  22.8284  26.4916  28.7484  32.2612  37.3061  37.7720

     occupation numbers 
     1.0000   1.0000   1.0000   1.0000   1.0000   1.0000   1.0000   1.0000
     0.0000   0.0000   0.0000   0.0000   0.0000   0.0000   0.0000   0.0000

          k = 0.5000-0.1667 0.8333 (  1498 PWs)   bands (ev):

   -63.2878 -30.1369 -30.1120 -30.0918  -6.7167   5.3790   6.5114   7.7224
    19.7325  21.1228  22.0146  25.7990  30.1091  31.3434  37.2431  37.8621

     occupation numbers 
     1.0000   1.0000   1.0000   1.0000   1.0000   1.0000   1.0000   1.0000
     0.0000   0.0000   0.0000   0.0000   0.0000   0.0000   0.0000   0.0000

          k =-0.3333-1.0000 0.0000 (  1510 PWs)   bands (ev):

   -63.2871 -30.1350 -30.1114 -30.1014  -6.6564   5.4120   6.7398   7.3175
    19.6753  20.7022  21.6554  25.8159  29.5050  34.0010  35.7242  37.8609

     occupation numbers 
     1.0000   1.0000   1.0000   1.0000   1.0000   1.0000   1.0000   1.0000
     0.0000   0.0000   0.0000   0.0000   0.0000   0.0000   0.0000   0.0000

     highest occupied, lowest unoccupied level (ev):     9.0035   13.9554

!    total energy              =    -140.85188791 Ry
     estimated scf accuracy    <          1.9E-09 Ry

     convergence has been achieved in   7 iterations

     Using ACE for calculation of exact exchange

     EXX grid:    12039 G-vectors     FFT dimensions: (  32,  32,  32)
     ACE projected onto    16 (nbndproj) and applied to    16 (nbnd) bands

     EXX: now go back to refine exchange calculation

     total cpu time spent up to now is       16.8 secs

     Self-consistent Calculation

     iteration #  1     ecut=    80.00 Ry     beta= 0.70
     Davidson diagonalization with overlap

---- Real-time Memory Report at c_bands before calling an iterative solver
          1620 MiB given to the printing process from OS
             0 MiB allocation reported by mallinfo(arena+hblkhd)
         10849 MiB available memory on the node where the printing process lives
------------------
     ethr =  7.13E-10,  avg # of iterations =  6.4

     total cpu time spent up to now is       17.2 secs

     total energy              =    -140.85121852 Ry
     estimated scf accuracy    <       0.00167205 Ry

     iteration #  2     ecut=    80.00 Ry     beta= 0.70
     Davidson diagonalization with overlap

---- Real-time Memory Report at c_bands before calling an iterative solver
          1620 MiB given to the printing process from OS
             0 MiB allocation reported by mallinfo(arena+hblkhd)
         10847 MiB available memory on the node where the printing process lives
------------------
     ethr =  1.05E-05,  avg # of iterations =  1.0

     total cpu time spent up to now is       17.4 secs

     total energy              =    -140.85125418 Ry
     estimated scf accuracy    <       0.00009973 Ry

     iteration #  3     ecut=    80.00 Ry     beta= 0.70
     Davidson diagonalization with overlap

---- Real-time Memory Report at c_bands before calling an iterative solver
          1620 MiB given to the printing process from OS
             0 MiB allocation reported by mallinfo(arena+hblkhd)
         10847 MiB available memory on the node where the printing process lives
------------------
     ethr =  6.23E-07,  avg # of iterations =  2.0

     total cpu time spent up to now is       17.6 secs

     total energy              =    -140.85127436 Ry
     estimated scf accuracy    <       0.00004370 Ry

     iteration #  4     ecut=    80.00 Ry     beta= 0.70
     Davidson diagonalization with overlap

---- Real-time Memory Report at c_bands before calling an iterative solver
          1620 MiB given to the printing process from OS
             0 MiB allocation reported by mallinfo(arena+hblkhd)
         10847 MiB available memory on the node where the printing process lives
------------------
     ethr =  2.73E-07,  avg # of iterations =  1.8

     total cpu time spent up to now is       17.8 secs

     total energy              =    -140.85128303 Ry
     estimated scf accuracy    <       0.00000016 Ry

     iteration #  5     ecut=    80.00 Ry     beta= 0.70
     Davidson diagonalization with overlap

---- Real-time Memory Report at c_bands before calling an iterative solver
          1620 MiB given to the printing process from OS
             0 MiB allocation reported by mallinfo(arena+hblkhd)
         10847 MiB available memory on the node where the printing process lives
------------------
     ethr =  9.86E-10,  avg # of iterations =  2.0

     total cpu time spent up to now is       18.0 secs

     total energy              =    -140.85128309 Ry
     estimated scf accuracy    <       0.00000004 Ry

     iteration #  6     ecut=    80.00 Ry     beta= 0.70
     Davidson diagonalization with overlap

---- Real-time Memory Report at c_bands before calling an iterative solver
          1620 MiB given to the printing process from OS
             0 MiB allocation reported by mallinfo(arena+hblkhd)
         10846 MiB available memory on the node where the printing process lives
------------------
     ethr =  2.49E-10,  avg # of iterations =  2.0

     total cpu time spent up to now is       18.2 secs

     End of self-consistent calculation

          k = 0.0000 0.0000 0.0000 (  1459 PWs)   bands (ev):

   -78.9364 -36.7945 -36.7944 -36.7944 -15.0079   6.2740   6.2740   6.2740
    14.7696  26.5021  26.5021  26.5021  30.3649  32.6927  32.6927  36.6086

     occupation numbers 
     1.0000   1.0000   1.0000   1.0000   1.0000   1.0000   1.0000   1.0000
     0.0000   0.0000   0.0000   0.0000   0.0000   0.0000   0.0000   0.0000

          k =-0.1667 0.1667-0.1667 (  1489 PWs)   bands (ev):

   -78.9417 -36.8213 -36.8006 -36.8006 -14.6645   4.7339   6.0992   6.0992
    16.3422  24.0898  27.1799  27.1799  31.5666  31.5666  33.6834  36.7537

     occupation numbers 
     1.0000   1.0000   1.0000   1.0000   1.0000   1.0000   1.0000   1.0000
     0.0000   0.0000   0.0000   0.0000   0.0000   0.0000   0.0000   0.0000

          k =-0.3333 0.3333-0.3333 (  1501 PWs)   bands (ev):

   -78.9310 -36.8725 -36.8002 -36.8002 -14.0118   2.1227   5.6706   5.6706
    18.0680  23.3083  27.7009  27.7009  32.2954  32.2954  32.9218  40.8872

     occupation numbers 
     1.0000   1.0000   1.0000   1.0000   1.0000   1.0000   1.0000   1.0000
     0.0000   0.0000   0.0000   0.0000   0.0000   0.0000   0.0000   0.0000

          k = 0.5000-0.5000 0.5000 (  1502 PWs)   bands (ev):

   -78.9361 -36.8980 -36.8065 -36.8065 -13.5999   1.0189   5.4964   5.4964
    18.2486  24.0888  27.4921  27.4921  32.1871  34.1195  34.1195  40.2888

     occupation numbers 
     1.0000   1.0000   1.0000   1.0000   1.0000   1.0000   1.0000   1.0000
     0.0000   0.0000   0.0000   0.0000   0.0000   0.0000   0.0000   0.0000

          k = 0.0000 0.3333 0.0000 (  1491 PWs)   bands (ev):

   -78.9432 -36.8228 -36.8059 -36.8059 -14.5631   4.6371   5.8975   5.8975
    16.8799  23.1423  27.6487  27.6528  28.9970  33.5902  35.5930  37.7873

     occupation numbers 
     1.0000   1.0000   1.0000   1.0000   1.0000   1.0000   1.0000   1.0000
     0.0000   0.0000   0.0000   0.0000   0.0000   0.0000   0.0000   0.0000

          k =-0.1667 0.5000-0.1667 (  1484 PWs)   bands (ev):

   -78.9378 -36.8590 -36.8125 -36.8079 -14.0357   2.8169   5.4178   5.4744
    18.8019  22.0497  26.4480  28.4832  29.7112  34.1947  36.5175  41.0766

     occupation numbers 
     1.0000   1.0000   1.0000   1.0000   1.0000   1.0000   1.0000   1.0000
     0.0000   0.0000   0.0000   0.0000   0.0000   0.0000   0.0000   0.0000

          k = 0.6667-0.3333 0.6667 (  1493 PWs)   bands (ev):

   -78.9376 -36.8885 -36.8207 -36.8118 -13.5442   1.5507   4.7358   5.3221
    19.4571  23.3908  25.2736  28.3432  31.4231  34.9679  35.8612  41.1564

     occupation numbers 
     1.0000   1.0000   1.0000   1.0000   1.0000   1.0000   1.0000   1.0000
     0.0000   0.0000   0.0000   0.0000   0.0000   0.0000   0.0000   0.0000

          k = 0.5000-0.1667 0.5000 (  1499 PWs)   bands (ev):

   -78.9361 -36.8806 -36.8217 -36.8065 -13.6658   1.8653   4.6200   5.5228
    19.5089  23.1083  25.5996  28.4094  31.8910  32.7272  35.9831  41.6396

     occupation numbers 
     1.0000   1.0000   1.0000   1.0000   1.0000   1.0000   1.0000   1.0000
     0.0000   0.0000   0.0000   0.0000   0.0000   0.0000   0.0000   0.0000

          k = 0.3333 0.0000 0.3333 (  1492 PWs)   bands (ev):

   -78.9413 -36.8484 -36.8162 -36.7998 -14.2248   3.3696   5.3527   5.9507
    18.1077  22.7803  26.9237  28.4541  29.6044  32.4609  36.1474  38.4942

     occupation numbers 
     1.0000   1.0000   1.0000   1.0000   1.0000   1.0000   1.0000   1.0000
     0.0000   0.0000   0.0000   0.0000   0.0000   0.0000   0.0000   0.0000

          k = 0.0000 0.6667 0.0000 (  1479 PWs)   bands (ev):

   -78.9289 -36.8587 -36.8185 -36.8184 -13.8169   2.3964   5.0603   5.0604
    19.9830  20.2809  25.0742  29.9302  29.9318  36.1573  39.2409  41.1524

     occupation numbers 
     1.0000   1.0000   1.0000   1.0000   1.0000   1.0000   1.0000   1.0000
     0.0000   0.0000   0.0000   0.0000   0.0000   0.0000   0.0000   0.0000

          k = 0.8333-0.1667 0.8333 (  1501 PWs)   bands (ev):

   -78.9342 -36.8718 -36.8357 -36.8248 -13.4581   2.0187   4.1913   4.9071
    20.1339  21.5820  24.1645  30.1260  30.2417  37.4970  38.8061  40.6056

     occupation numbers 
     1.0000   1.0000   1.0000   1.0000   1.0000   1.0000   1.0000   1.0000
     0.0000   0.0000   0.0000   0.0000   0.0000   0.0000   0.0000   0.0000

          k = 0.6667-0.0000 0.6667 (  1516 PWs)   bands (ev):

   -78.9274 -36.8601 -36.8525 -36.8122 -13.4376   2.6463   2.8511   5.1007
    20.9061  23.2343  23.6286  29.4614  30.1007  34.3371  39.5398  40.3445

     occupation numbers 
     1.0000   1.0000   1.0000   1.0000   1.0000   1.0000   1.0000   1.0000
     0.0000   0.0000   0.0000   0.0000   0.0000   0.0000   0.0000   0.0000

          k = 0.0000-1.0000 0.0000 (  1524 PWs)   bands (ev):

   -78.9360 -36.8822 -36.8304 -36.8304 -13.3927   1.6717   4.7351   4.7351
    19.2587  20.5961  24.6472  31.0690  31.0690  37.1916  38.5221  42.3514

     occupation numbers 
     1.0000   1.0000   1.0000   1.0000   1.0000   1.0000   1.0000   1.0000
     0.0000   0.0000   0.0000   0.0000   0.0000   0.0000   0.0000   0.0000

          k = 0.6667-0.3333 1.0000 (  1492 PWs)   bands (ev):

   -78.9375 -36.8694 -36.8333 -36.8162 -13.6068   2.2871   4.2582   5.2044
    20.8033  21.5685  24.5910  28.8062  30.9072  34.3829  39.6660  40.5047

     occupation numbers 
     1.0000   1.0000   1.0000   1.0000   1.0000   1.0000   1.0000   1.0000
     0.0000   0.0000   0.0000   0.0000   0.0000   0.0000   0.0000   0.0000

          k = 0.5000-0.1667 0.8333 (  1498 PWs)   bands (ev):

   -78.9342 -36.8720 -36.8436 -36.8184 -13.3997   2.2387   3.5392   4.9082
    21.2279  22.9213  23.7362  27.9578  32.1262  33.6960  39.8085  40.2587

     occupation numbers 
     1.0000   1.0000   1.0000   1.0000   1.0000   1.0000   1.0000   1.0000
     0.0000   0.0000   0.0000   0.0000   0.0000   0.0000   0.0000   0.0000

          k =-0.3333-1.0000 0.0000 (  1510 PWs)   bands (ev):

   -78.9358 -36.8679 -36.8440 -36.8326 -13.3361   2.2811   3.8223   4.4242
    20.9937  22.2538  23.6624  28.0244  32.1138  36.2039  38.0848  40.6277

     occupation numbers 
     1.0000   1.0000   1.0000   1.0000   1.0000   1.0000   1.0000   1.0000
     0.0000   0.0000   0.0000   0.0000   0.0000   0.0000   0.0000   0.0000

     highest occupied, lowest unoccupied level (ev):     6.2740   14.7696

!    total energy              =    -140.85128310 Ry
     estimated scf accuracy    <          7.9E-11 Ry

     convergence has been achieved in   6 iterations

     Using ACE for calculation of exact exchange
     ACE projected onto    16 (nbndproj) and applied to    16 (nbnd) bands

     total energy              =    -140.85371059 Ry
     Harris-Foulkes estimate   =    -140.85371059 Ry
     est. exchange err (dexx)  =       0.00242749 Ry
     - averaged Fock potential =      26.12076964 Ry
     + Fock energy (ACE)       =     -13.08458860 Ry

     EXX: now go back to refine exchange calculation

     total cpu time spent up to now is       32.2 secs

     Self-consistent Calculation

     iteration #  1     ecut=    80.00 Ry     beta= 0.70
     Davidson diagonalization with overlap

---- Real-time Memory Report at c_bands before calling an iterative solver
          1620 MiB given to the printing process from OS
             0 MiB allocation reported by mallinfo(arena+hblkhd)
         10851 MiB available memory on the node where the printing process lives
------------------
     ethr =  2.49E-10,  avg # of iterations =  5.2

     total cpu time spent up to now is       32.6 secs

     total energy              =    -140.85410765 Ry
     estimated scf accuracy    <       0.00005765 Ry

     iteration #  2     ecut=    80.00 Ry     beta= 0.70
     Davidson diagonalization with overlap

---- Real-time Memory Report at c_bands before calling an iterative solver
          1620 MiB given to the printing process from OS
             0 MiB allocation reported by mallinfo(arena+hblkhd)
         10848 MiB available memory on the node where the printing process lives
------------------
     ethr =  3.60E-07,  avg # of iterations =  1.0

     total cpu time spent up to now is       32.7 secs

     total energy              =    -140.85410901 Ry
     estimated scf accuracy    <       0.00000396 Ry

     iteration #  3     ecut=    80.00 Ry     beta= 0.70
     Davidson diagonalization with overlap

---- Real-time Memory Report at c_bands before calling an iterative solver
          1620 MiB given to the printing process from OS
             0 MiB allocation reported by mallinfo(arena+hblkhd)
         10847 MiB available memory on the node where the printing process lives
------------------
     ethr =  2.47E-08,  avg # of iterations =  2.0

     total cpu time spent up to now is       32.9 secs

     total energy              =    -140.85410987 Ry
     estimated scf accuracy    <       0.00000187 Ry

     iteration #  4     ecut=    80.00 Ry     beta= 0.70
     Davidson diagonalization with overlap

---- Real-time Memory Report at c_bands before calling an iterative solver
          1620 MiB given to the printing process from OS
             0 MiB allocation reported by mallinfo(arena+hblkhd)
         10847 MiB available memory on the node where the printing process lives
------------------
     ethr =  1.17E-08,  avg # of iterations =  1.8

     total cpu time spent up to now is       33.1 secs

     End of self-consistent calculation

          k = 0.0000 0.0000 0.0000 (  1459 PWs)   bands (ev):

   -78.9413 -36.8295 -36.8294 -36.8294 -15.0924   6.2223   6.2223   6.2223
    14.8577  26.5425  26.5425  26.5425  30.4277  32.7050  32.7050  36.6406

     occupation numbers 
     1.0000   1.0000   1.0000   1.0000   1.0000   1.0000   1.0000   1.0000
     0.0000   0.0000   0.0000   0.0000   0.0000   0.0000   0.0000   0.0000

          k =-0.1667 0.1667-0.1667 (  1489 PWs)   bands (ev):

   -78.9470 -36.8562 -36.8356 -36.8356 -14.7422   4.7128   6.0542   6.0542
    16.4193  24.1450  27.2163  27.2163  31.5818  31.5818  33.7300  36.7915

     occupation numbers 
     1.0000   1.0000   1.0000   1.0000   1.0000   1.0000   1.0000   1.0000
     0.0000   0.0000   0.0000   0.0000   0.0000   0.0000   0.0000   0.0000

          k =-0.3333 0.3333-0.3333 (  1501 PWs)   bands (ev):

   -78.9360 -36.9063 -36.8350 -36.8350 -14.1137   2.1261   5.6219   5.6219
    18.1353  23.3658  27.7328  27.7328  32.3291  32.3292  32.9745  40.9192

     occupation numbers 
     1.0000   1.0000   1.0000   1.0000   1.0000   1.0000   1.0000   1.0000
     0.0000   0.0000   0.0000   0.0000   0.0000   0.0000   0.0000   0.0000

          k = 0.5000-0.5000 0.5000 (  1502 PWs)   bands (ev):

   -78.9415 -36.9318 -36.8413 -36.8413 -13.6951   1.0451   5.4561   5.4562
    18.3231  24.1447  27.5228  27.5228  32.2440  34.1602  34.1602  40.3046

     occupation numbers 
     1.0000   1.0000   1.0000   1.0000   1.0000   1.0000   1.0000   1.0000
     0.0000   0.0000   0.0000   0.0000   0.0000   0.0000   0.0000   0.0000

          k = 0.0000 0.3333 0.0000 (  1491 PWs)   bands (ev):

   -78.9486 -36.8576 -36.8410 -36.8409 -14.6386   4.6181   5.8572   5.8573
    16.9539  23.1970  27.6884  27.6887  29.0249  33.5983  35.6375  37.8162

     occupation numbers 
     1.0000   1.0000   1.0000   1.0000   1.0000   1.0000   1.0000   1.0000
     0.0000   0.0000   0.0000   0.0000   0.0000   0.0000   0.0000   0.0000

          k =-0.1667 0.5000-0.1667 (  1484 PWs)   bands (ev):

   -78.9431 -36.8932 -36.8473 -36.8429 -14.1241   2.8147   5.3821   5.4345
    18.8656  22.1110  26.4912  28.5164  29.7493  34.2158  36.5539  41.1083

     occupation numbers 
     1.0000   1.0000   1.0000   1.0000   1.0000   1.0000   1.0000   1.0000
     0.0000   0.0000   0.0000   0.0000   0.0000   0.0000   0.0000   0.0000

          k = 0.6667-0.3333 0.6667 (  1493 PWs)   bands (ev):

   -78.9430 -36.9224 -36.8554 -36.8466 -13.6367   1.5687   4.7074   5.2865
    19.5234  23.4476  25.3224  28.3751  31.4622  35.0044  35.9014  41.1418

     occupation numbers 
     1.0000   1.0000   1.0000   1.0000   1.0000   1.0000   1.0000   1.0000
     0.0000   0.0000   0.0000   0.0000   0.0000   0.0000   0.0000   0.0000

          k = 0.5000-0.1667 0.5000 (  1499 PWs)   bands (ev):

   -78.9414 -36.9145 -36.8565 -36.8413 -13.7606   1.8768   4.5936   5.4796
    19.5739  23.1651  25.6479  28.4413  31.9241  32.7682  36.0187  41.6520

     occupation numbers 
     1.0000   1.0000   1.0000   1.0000   1.0000   1.0000   1.0000   1.0000
     0.0000   0.0000   0.0000   0.0000   0.0000   0.0000   0.0000   0.0000

          k = 0.3333 0.0000 0.3333 (  1492 PWs)   bands (ev):

   -78.9467 -36.8827 -36.8512 -36.8348 -14.3060   3.3634   5.3198   5.9076
    18.1749  22.8416  26.9640  28.4884  29.6302  32.4928  36.1784  38.5180

     occupation numbers 
     1.0000   1.0000   1.0000   1.0000   1.0000   1.0000   1.0000   1.0000
     0.0000   0.0000   0.0000   0.0000   0.0000   0.0000   0.0000   0.0000

          k = 0.0000 0.6667 0.0000 (  1479 PWs)   bands (ev):

   -78.9338 -36.8926 -36.8531 -36.8531 -13.9226   2.3942   5.0192   5.0193
    20.0398  20.3502  25.1272  29.9724  29.9725  36.1627  39.2688  41.1836

     occupation numbers 
     1.0000   1.0000   1.0000   1.0000   1.0000   1.0000   1.0000   1.0000
     0.0000   0.0000   0.0000   0.0000   0.0000   0.0000   0.0000   0.0000

          k = 0.8333-0.1667 0.8333 (  1501 PWs)   bands (ev):

   -78.9395 -36.9058 -36.8703 -36.8594 -13.5565   2.0285   4.1682   4.8740
    20.2008  21.6452  24.2180  30.1661  30.2839  37.5187  38.8231  40.6141

     occupation numbers 
     1.0000   1.0000   1.0000   1.0000   1.0000   1.0000   1.0000   1.0000
     0.0000   0.0000   0.0000   0.0000   0.0000   0.0000   0.0000   0.0000

          k = 0.6667-0.0000 0.6667 (  1516 PWs)   bands (ev):

   -78.9323 -36.8941 -36.8865 -36.8469 -13.5512   2.6399   2.8412   5.0569
    20.9651  23.2889  23.6883  29.4963  30.1367  34.3670  39.5731  40.3629

     occupation numbers 
     1.0000   1.0000   1.0000   1.0000   1.0000   1.0000   1.0000   1.0000
     0.0000   0.0000   0.0000   0.0000   0.0000   0.0000   0.0000   0.0000

          k = 0.0000-1.0000 0.0000 (  1524 PWs)   bands (ev):

   -78.9414 -36.9161 -36.8651 -36.8650 -13.4872   1.6880   4.7082   4.7082
    19.3297  20.6665  24.7001  31.1167  31.1167  37.2061  38.5152  42.3746

     occupation numbers 
     1.0000   1.0000   1.0000   1.0000   1.0000   1.0000   1.0000   1.0000
     0.0000   0.0000   0.0000   0.0000   0.0000   0.0000   0.0000   0.0000

          k = 0.6667-0.3333 1.0000 (  1492 PWs)   bands (ev):

   -78.9429 -36.9034 -36.8679 -36.8511 -13.6986   2.2943   4.2354   5.1700
    20.8618  21.6313  24.6460  28.8437  30.9450  34.4116  39.6968  40.5088

     occupation numbers 
     1.0000   1.0000   1.0000   1.0000   1.0000   1.0000   1.0000   1.0000
     0.0000   0.0000   0.0000   0.0000   0.0000   0.0000   0.0000   0.0000

          k = 0.5000-0.1667 0.8333 (  1498 PWs)   bands (ev):

   -78.9395 -36.9061 -36.8780 -36.8532 -13.4997   2.2437   3.5234   4.8761
    21.2871  22.9781  23.7961  27.9960  32.1561  33.7329  39.8144  40.2597

     occupation numbers 
     1.0000   1.0000   1.0000   1.0000   1.0000   1.0000   1.0000   1.0000
     0.0000   0.0000   0.0000   0.0000   0.0000   0.0000   0.0000   0.0000

          k =-0.3333-1.0000 0.0000 (  1510 PWs)   bands (ev):

   -78.9412 -36.9020 -36.8785 -36.8672 -13.4327   2.2865   3.8097   4.3972
    21.0580  22.3187  23.7180  28.0643  32.1571  36.2339  38.0880  40.6514

     occupation numbers 
     1.0000   1.0000   1.0000   1.0000   1.0000   1.0000   1.0000   1.0000
     0.0000   0.0000   0.0000   0.0000   0.0000   0.0000   0.0000   0.0000

     highest occupied, lowest unoccupied level (ev):     6.2223   14.8577

!    total energy              =    -140.85411025 Ry
     estimated scf accuracy    <          5.2E-09 Ry

     convergence has been achieved in   4 iterations

     Using ACE for calculation of exact exchange
     ACE projected onto    16 (nbndproj) and applied to    16 (nbnd) bands

     total energy              =    -140.85418026 Ry
     Harris-Foulkes estimate   =    -140.85418027 Ry
     est. exchange err (dexx)  =       0.00007001 Ry
     - averaged Fock potential =      26.17769633 Ry
     + Fock energy (ACE)       =     -13.09317775 Ry

     EXX: now go back to refine exchange calculation

     total cpu time spent up to now is       47.5 secs

     Self-consistent Calculation

     iteration #  1     ecut=    80.00 Ry     beta= 0.70
     Davidson diagonalization with overlap

---- Real-time Memory Report at c_bands before calling an iterative solver
          1621 MiB given to the printing process from OS
             0 MiB allocation reported by mallinfo(arena+hblkhd)
         10851 MiB available memory on the node where the printing process lives
------------------
     ethr =  1.17E-08,  avg # of iterations =  3.1

     total cpu time spent up to now is       47.8 secs

     total energy              =    -140.85419303 Ry
     estimated scf accuracy    <       0.00000200 Ry

     iteration #  2     ecut=    80.00 Ry     beta= 0.70
     Davidson diagonalization with overlap

---- Real-time Memory Report at c_bands before calling an iterative solver
          1621 MiB given to the printing process from OS
             0 MiB allocation reported by mallinfo(arena+hblkhd)
         10848 MiB available memory on the node where the printing process lives
------------------
     ethr =  1.25E-08,  avg # of iterations =  1.0

     total cpu time spent up to now is       47.9 secs

     total energy              =    -140.85419306 Ry
     estimated scf accuracy    <       0.00000013 Ry

     iteration #  3     ecut=    80.00 Ry     beta= 0.70
     Davidson diagonalization with overlap

---- Real-time Memory Report at c_bands before calling an iterative solver
          1621 MiB given to the printing process from OS
             0 MiB allocation reported by mallinfo(arena+hblkhd)
         10847 MiB available memory on the node where the printing process lives
------------------
     ethr =  7.99E-10,  avg # of iterations =  2.0

     total cpu time spent up to now is       48.1 secs

     total energy              =    -140.85419309 Ry
     estimated scf accuracy    <       0.00000006 Ry

     iteration #  4     ecut=    80.00 Ry     beta= 0.70
     Davidson diagonalization with overlap

---- Real-time Memory Report at c_bands before calling an iterative solver
          1621 MiB given to the printing process from OS
             0 MiB allocation reported by mallinfo(arena+hblkhd)
         10846 MiB available memory on the node where the printing process lives
------------------
     ethr =  3.45E-10,  avg # of iterations =  1.8

     total cpu time spent up to now is       48.3 secs

     End of self-consistent calculation

          k = 0.0000 0.0000 0.0000 (  1459 PWs)   bands (ev):

   -78.9416 -36.8356 -36.8356 -36.8356 -15.1036   6.2111   6.2111   6.2111
    14.8761  26.5510  26.5510  26.5510  30.4404  32.7080  32.7080  36.6475

     occupation numbers 
     1.0000   1.0000   1.0000   1.0000   1.0000   1.0000   1.0000   1.0000
     0.0000   0.0000   0.0000   0.0000   0.0000   0.0000   0.0000   0.0000

          k =-0.1667 0.1667-0.1667 (  1489 PWs)   bands (ev):

   -78.9474 -36.8624 -36.8417 -36.8417 -14.7508   4.7080   6.0459   6.0459
    16.4358  24.1558  27.2237  27.2237  31.5853  31.5853  33.7396  36.7993

     occupation numbers 
     1.0000   1.0000   1.0000   1.0000   1.0000   1.0000   1.0000   1.0000
     0.0000   0.0000   0.0000   0.0000   0.0000   0.0000   0.0000   0.0000

          k =-0.3333 0.3333-0.3333 (  1501 PWs)   bands (ev):

   -78.9362 -36.9122 -36.8411 -36.8411 -14.1282   2.1265   5.6116   5.6116
    18.1491  23.3762  27.7398  27.7398  32.3360  32.3360  32.9851  40.9268

     occupation numbers 
     1.0000   1.0000   1.0000   1.0000   1.0000   1.0000   1.0000   1.0000
     0.0000   0.0000   0.0000   0.0000   0.0000   0.0000   0.0000   0.0000

          k = 0.5000-0.5000 0.5000 (  1502 PWs)   bands (ev):

   -78.9419 -36.9378 -36.8474 -36.8474 -13.7063   1.0495   5.4490   5.4490
    18.3384  24.1544  27.5290  27.5290  32.2550  34.1691  34.1691  40.3092

     occupation numbers 
     1.0000   1.0000   1.0000   1.0000   1.0000   1.0000   1.0000   1.0000
     0.0000   0.0000   0.0000   0.0000   0.0000   0.0000   0.0000   0.0000

          k = 0.0000 0.3333 0.0000 (  1491 PWs)   bands (ev):

   -78.9491 -36.8638 -36.8471 -36.8471 -14.6462   4.6150   5.8500   5.8500
    16.9701  23.2077  27.6965  27.6965  29.0302  33.6001  35.6466  37.8224

     occupation numbers 
     1.0000   1.0000   1.0000   1.0000   1.0000   1.0000   1.0000   1.0000
     0.0000   0.0000   0.0000   0.0000   0.0000   0.0000   0.0000   0.0000

          k =-0.1667 0.5000-0.1667 (  1484 PWs)   bands (ev):

   -78.9435 -36.8992 -36.8534 -36.8491 -14.1345   2.8150   5.3740   5.4272
    18.8793  22.1231  26.4996  28.5238  29.7571  34.2201  36.5617  41.1148

     occupation numbers 
     1.0000   1.0000   1.0000   1.0000   1.0000   1.0000   1.0000   1.0000
     0.0000   0.0000   0.0000   0.0000   0.0000   0.0000   0.0000   0.0000

          k = 0.6667-0.3333 0.6667 (  1493 PWs)   bands (ev):

   -78.9435 -36.9284 -36.8616 -36.8528 -13.6469   1.5722   4.7021   5.2802
    19.5374  23.4588  25.3316  28.3817  31.4705  35.0124  35.9096  41.1344

     occupation numbers 
     1.0000   1.0000   1.0000   1.0000   1.0000   1.0000   1.0000   1.0000
     0.0000   0.0000   0.0000   0.0000   0.0000   0.0000   0.0000   0.0000

          k = 0.5000-0.1667 0.5000 (  1499 PWs)   bands (ev):

   -78.9418 -36.9205 -36.8627 -36.8474 -13.7719   1.8792   4.5878   5.4720
    19.5873  23.1763  25.6570  28.4476  31.9309  32.7769  36.0264  41.6532

     occupation numbers 
     1.0000   1.0000   1.0000   1.0000   1.0000   1.0000   1.0000   1.0000
     0.0000   0.0000   0.0000   0.0000   0.0000   0.0000   0.0000   0.0000

          k = 0.3333 0.0000 0.3333 (  1492 PWs)   bands (ev):

   -78.9472 -36.8888 -36.8574 -36.8410 -14.3145   3.3630   5.3132   5.9000
    18.1897  22.8537  26.9718  28.4954  29.6354  32.4991  36.1862  38.5231

     occupation numbers 
     1.0000   1.0000   1.0000   1.0000   1.0000   1.0000   1.0000   1.0000
     0.0000   0.0000   0.0000   0.0000   0.0000   0.0000   0.0000   0.0000

          k = 0.0000 0.6667 0.0000 (  1479 PWs)   bands (ev):

   -78.9341 -36.8985 -36.8592 -36.8592 -13.9379   2.3937   5.0104   5.0104
    20.0509  20.3641  25.1372  29.9808  29.9808  36.1642  39.2746  41.1903

     occupation numbers 
     1.0000   1.0000   1.0000   1.0000   1.0000   1.0000   1.0000   1.0000
     0.0000   0.0000   0.0000   0.0000   0.0000   0.0000   0.0000   0.0000

          k = 0.8333-0.1667 0.8333 (  1501 PWs)   bands (ev):

   -78.9399 -36.9118 -36.8764 -36.8655 -13.5684   2.0301   4.1635   4.8680
    20.2140  21.6576  24.2286  30.1743  30.2927  37.5234  38.8274  40.6160

     occupation numbers 
     1.0000   1.0000   1.0000   1.0000   1.0000   1.0000   1.0000   1.0000
     0.0000   0.0000   0.0000   0.0000   0.0000   0.0000   0.0000   0.0000

          k = 0.6667-0.0000 0.6667 (  1516 PWs)   bands (ev):

   -78.9326 -36.9001 -36.8925 -36.8529 -13.5678   2.6382   2.8388   5.0477
    20.9768  23.2989  23.6992  29.5032  30.1450  34.3735  39.5802  40.3666

     occupation numbers 
     1.0000   1.0000   1.0000   1.0000   1.0000   1.0000   1.0000   1.0000
     0.0000   0.0000   0.0000   0.0000   0.0000   0.0000   0.0000   0.0000

          k = 0.0000-1.0000 0.0000 (  1524 PWs)   bands (ev):

   -78.9418 -36.9221 -36.8712 -36.8712 -13.4976   1.6910   4.7034   4.7034
    19.3435  20.6802  24.7105  31.1264  31.1264  37.2105  38.5141  42.3794

     occupation numbers 
     1.0000   1.0000   1.0000   1.0000   1.0000   1.0000   1.0000   1.0000
     0.0000   0.0000   0.0000   0.0000   0.0000   0.0000   0.0000   0.0000

          k = 0.6667-0.3333 1.0000 (  1492 PWs)   bands (ev):

   -78.9434 -36.9095 -36.8740 -36.8572 -13.7088   2.2960   4.2313   5.1632
    20.8743  21.6438  24.6564  28.8514  30.9526  34.4179  39.7034  40.4957

     occupation numbers 
     1.0000   1.0000   1.0000   1.0000   1.0000   1.0000   1.0000   1.0000
     0.0000   0.0000   0.0000   0.0000   0.0000   0.0000   0.0000   0.0000

          k = 0.5000-0.1667 0.8333 (  1498 PWs)   bands (ev):

   -78.9399 -36.9120 -36.8840 -36.8594 -13.5119   2.2447   3.5207   4.8692
    21.2994  22.9890  23.8076  28.0041  32.1626  33.7405  39.8164  40.2523

     occupation numbers 
     1.0000   1.0000   1.0000   1.0000   1.0000   1.0000   1.0000   1.0000
     0.0000   0.0000   0.0000   0.0000   0.0000   0.0000   0.0000   0.0000

          k =-0.3333-1.0000 0.0000 (  1510 PWs)   bands (ev):

   -78.9417 -36.9079 -36.8847 -36.8733 -13.4435   2.2877   3.8069   4.3923
    21.0707  22.3313  23.7291  28.0730  32.1660  36.2402  38.0896  40.6562

     occupation numbers 
     1.0000   1.0000   1.0000   1.0000   1.0000   1.0000   1.0000   1.0000
     0.0000   0.0000   0.0000   0.0000   0.0000   0.0000   0.0000   0.0000

     highest occupied, lowest unoccupied level (ev):     6.2111   14.8761

!    total energy              =    -140.85419310 Ry
     estimated scf accuracy    <          2.2E-10 Ry

     convergence has been achieved in   4 iterations

     Using ACE for calculation of exact exchange
     ACE projected onto    16 (nbndproj) and applied to    16 (nbnd) bands

     total energy              =    -140.85419551 Ry
     Harris-Foulkes estimate   =    -140.85419551 Ry
     est. exchange err (dexx)  =       0.00000241 Ry
     - averaged Fock potential =      26.18793113 Ry
     + Fock energy (ACE)       =     -13.09475579 Ry

     EXX: now go back to refine exchange calculation

     total cpu time spent up to now is       63.0 secs

     Self-consistent Calculation

     iteration #  1     ecut=    80.00 Ry     beta= 0.70
     Davidson diagonalization with overlap

---- Real-time Memory Report at c_bands before calling an iterative solver
          1621 MiB given to the printing process from OS
             0 MiB allocation reported by mallinfo(arena+hblkhd)
         10851 MiB available memory on the node where the printing process lives
------------------
     ethr =  3.45E-10,  avg # of iterations =  3.0

     total cpu time spent up to now is       63.2 secs

     total energy              =    -140.85419598 Ry
     estimated scf accuracy    <       0.00000007 Ry

     iteration #  2     ecut=    80.00 Ry     beta= 0.70
     Davidson diagonalization with overlap

---- Real-time Memory Report at c_bands before calling an iterative solver
          1621 MiB given to the printing process from OS
             0 MiB allocation reported by mallinfo(arena+hblkhd)
         10848 MiB available memory on the node where the printing process lives
------------------
     ethr =  4.51E-10,  avg # of iterations =  1.0

     total cpu time spent up to now is       63.4 secs

     End of self-consistent calculation

          k = 0.0000 0.0000 0.0000 (  1459 PWs)   bands (ev):

   -78.9417 -36.8366 -36.8366 -36.8366 -15.1058   6.2081   6.2081   6.2081
    14.8799  26.5527  26.5527  26.5527  30.4430  32.7085  32.7085  36.6488

     occupation numbers 
     1.0000   1.0000   1.0000   1.0000   1.0000   1.0000   1.0000   1.0000
     0.0000   0.0000   0.0000   0.0000   0.0000   0.0000   0.0000   0.0000

          k =-0.1667 0.1667-0.1667 (  1489 PWs)   bands (ev):

   -78.9475 -36.8635 -36.8428 -36.8428 -14.7517   4.7065   6.0444   6.0444
    16.4392  24.1579  27.2251  27.2251  31.5860  31.5860  33.7413  36.8008

     occupation numbers 
     1.0000   1.0000   1.0000   1.0000   1.0000   1.0000   1.0000   1.0000
     0.0000   0.0000   0.0000   0.0000   0.0000   0.0000   0.0000   0.0000

          k =-0.3333 0.3333-0.3333 (  1501 PWs)   bands (ev):

   -78.9363 -36.9133 -36.8421 -36.8421 -14.1310   2.1261   5.6088   5.6088
    18.1519  23.3779  27.7412  27.7412  32.3373  32.3373  32.9872  40.9284

     occupation numbers 
     1.0000   1.0000   1.0000   1.0000   1.0000   1.0000   1.0000   1.0000
     0.0000   0.0000   0.0000   0.0000   0.0000   0.0000   0.0000   0.0000

          k = 0.5000-0.5000 0.5000 (  1502 PWs)   bands (ev):

   -78.9420 -36.9389 -36.8485 -36.8485 -13.7077   1.0500   5.4477   5.4477
    18.3415  24.1559  27.5300  27.5300  32.2570  34.1710  34.1710  40.3103

     occupation numbers 
     1.0000   1.0000   1.0000   1.0000   1.0000   1.0000   1.0000   1.0000
     0.0000   0.0000   0.0000   0.0000   0.0000   0.0000   0.0000   0.0000

          k = 0.0000 0.3333 0.0000 (  1491 PWs)   bands (ev):

   -78.9493 -36.8649 -36.8482 -36.8482 -14.6467   4.6143   5.8487   5.8488
    16.9736  23.2096  27.6980  27.6980  29.0311  33.6003  35.6483  37.8235

     occupation numbers 
     1.0000   1.0000   1.0000   1.0000   1.0000   1.0000   1.0000   1.0000
     0.0000   0.0000   0.0000   0.0000   0.0000   0.0000   0.0000   0.0000

          k =-0.1667 0.5000-0.1667 (  1484 PWs)   bands (ev):

   -78.9437 -36.9002 -36.8545 -36.8502 -14.1358   2.8151   5.3718   5.4258
    18.8822  22.1255  26.5011  28.5253  29.7585  34.2209  36.5632  41.1158

     occupation numbers 
     1.0000   1.0000   1.0000   1.0000   1.0000   1.0000   1.0000   1.0000
     0.0000   0.0000   0.0000   0.0000   0.0000   0.0000   0.0000   0.0000

          k = 0.6667-0.3333 0.6667 (  1493 PWs)   bands (ev):

   -78.9437 -36.9295 -36.8627 -36.8538 -13.6477   1.5729   4.7011   5.2792
    19.5402  23.4610  25.3332  28.3828  31.4721  35.0139  35.9110  41.1311

     occupation numbers 
     1.0000   1.0000   1.0000   1.0000   1.0000   1.0000   1.0000   1.0000
     0.0000   0.0000   0.0000   0.0000   0.0000   0.0000   0.0000   0.0000

          k = 0.5000-0.1667 0.5000 (  1499 PWs)   bands (ev):

   -78.9420 -36.9215 -36.8638 -36.8485 -13.7733   1.8796   4.5862   5.4706
    19.5900  23.1786  25.6587  28.4488  31.9321  32.7786  36.0279  41.6527

     occupation numbers 
     1.0000   1.0000   1.0000   1.0000   1.0000   1.0000   1.0000   1.0000
     0.0000   0.0000   0.0000   0.0000   0.0000   0.0000   0.0000   0.0000

          k = 0.3333 0.0000 0.3333 (  1492 PWs)   bands (ev):

   -78.9474 -36.8898 -36.8585 -36.8421 -14.3152   3.3630   5.3117   5.8986
    18.1929  22.8560  26.9732  28.4966  29.6363  32.5002  36.1877  38.5240

     occupation numbers 
     1.0000   1.0000   1.0000   1.0000   1.0000   1.0000   1.0000   1.0000
     0.0000   0.0000   0.0000   0.0000   0.0000   0.0000   0.0000   0.0000

          k = 0.0000 0.6667 0.0000 (  1479 PWs)   bands (ev):

   -78.9342 -36.8995 -36.8602 -36.8602 -13.9408   2.3931   5.0080   5.0080
    20.0529  20.3669  25.1390  29.9822  29.9822  36.1646  39.2757  41.1917

     occupation numbers 
     1.0000   1.0000   1.0000   1.0000   1.0000   1.0000   1.0000   1.0000
     0.0000   0.0000   0.0000   0.0000   0.0000   0.0000   0.0000   0.0000

          k = 0.8333-0.1667 0.8333 (  1501 PWs)   bands (ev):

   -78.9401 -36.9128 -36.8775 -36.8666 -13.5698   2.0301   4.1623   4.8669
    20.2165  21.6599  24.2306  30.1759  30.2943  37.5243  38.8283  40.6163

     occupation numbers 
     1.0000   1.0000   1.0000   1.0000   1.0000   1.0000   1.0000   1.0000
     0.0000   0.0000   0.0000   0.0000   0.0000   0.0000   0.0000   0.0000

          k = 0.6667-0.0000 0.6667 (  1516 PWs)   bands (ev):

   -78.9327 -36.9011 -36.8935 -36.8540 -13.5710   2.6373   2.8378   5.0451
    20.9791  23.3005  23.7010  29.5045  30.1467  34.3748  39.5816  40.3672

     occupation numbers 
     1.0000   1.0000   1.0000   1.0000   1.0000   1.0000   1.0000   1.0000
     0.0000   0.0000   0.0000   0.0000   0.0000   0.0000   0.0000   0.0000

          k = 0.0000-1.0000 0.0000 (  1524 PWs)   bands (ev):

   -78.9421 -36.9232 -36.8723 -36.8723 -13.4985   1.6915   4.7026   4.7026
    19.3460  20.6827  24.7125  31.1283  31.1283  37.2116  38.5137  42.3803

     occupation numbers 
     1.0000   1.0000   1.0000   1.0000   1.0000   1.0000   1.0000   1.0000
     0.0000   0.0000   0.0000   0.0000   0.0000   0.0000   0.0000   0.0000

          k = 0.6667-0.3333 1.0000 (  1492 PWs)   bands (ev):

   -78.9436 -36.9106 -36.8751 -36.8583 -13.7096   2.2964   4.2305   5.1618
    20.8770  21.6462  24.6583  28.8529  30.9540  34.4191  39.7047  40.4812

     occupation numbers 
     1.0000   1.0000   1.0000   1.0000   1.0000   1.0000   1.0000   1.0000
     0.0000   0.0000   0.0000   0.0000   0.0000   0.0000   0.0000   0.0000

          k = 0.5000-0.1667 0.8333 (  1498 PWs)   bands (ev):

   -78.9400 -36.9131 -36.8850 -36.8605 -13.5134   2.2448   3.5202   4.8673
    21.3020  22.9911  23.8098  28.0057  32.1639  33.7419  39.8168  40.2467

     occupation numbers 
     1.0000   1.0000   1.0000   1.0000   1.0000   1.0000   1.0000   1.0000
     0.0000   0.0000   0.0000   0.0000   0.0000   0.0000   0.0000   0.0000

          k =-0.3333-1.0000 0.0000 (  1510 PWs)   bands (ev):

   -78.9419 -36.9090 -36.8858 -36.8744 -13.4445   2.2880   3.8062   4.3914
    21.0731  22.3336  23.7313  28.0747  32.1676  36.2414  38.0900  40.6571

     occupation numbers 
     1.0000   1.0000   1.0000   1.0000   1.0000   1.0000   1.0000   1.0000
     0.0000   0.0000   0.0000   0.0000   0.0000   0.0000   0.0000   0.0000

     highest occupied, lowest unoccupied level (ev):     6.2081   14.8799

!    total energy              =    -140.85419598 Ry
     estimated scf accuracy    <          3.8E-09 Ry

     convergence has been achieved in   2 iterations

     Using ACE for calculation of exact exchange
     ACE projected onto    16 (nbndproj) and applied to    16 (nbnd) bands

     total energy              =    -140.85419608 Ry
     Harris-Foulkes estimate   =    -140.85419608 Ry
     est. exchange err (dexx)  =       0.00000010 Ry
     - averaged Fock potential =      26.18979009 Ry
     + Fock energy (ACE)       =     -13.09503440 Ry

     EXX: now go back to refine exchange calculation

     total cpu time spent up to now is       78.3 secs

     Self-consistent Calculation

     iteration #  1     ecut=    80.00 Ry     beta= 0.70
     Davidson diagonalization with overlap

---- Real-time Memory Report at c_bands before calling an iterative solver
          1621 MiB given to the printing process from OS
             0 MiB allocation reported by mallinfo(arena+hblkhd)
         10852 MiB available memory on the node where the printing process lives
------------------
     ethr =  4.51E-10,  avg # of iterations =  2.1

     Threshold (ethr) on eigenvalues was too large:
     Diagonalizing with lowered threshold

     Davidson diagonalization with overlap

---- Real-time Memory Report at c_bands before calling an iterative solver
          1621 MiB given to the printing process from OS
             0 MiB allocation reported by mallinfo(arena+hblkhd)
         10851 MiB available memory on the node where the printing process lives
------------------
     ethr =  2.25E-11,  avg # of iterations =  1.1

     total cpu time spent up to now is       78.6 secs

     End of self-consistent calculation

          k = 0.0000 0.0000 0.0000 (  1459 PWs)   bands (ev):

   -78.9417 -36.8367 -36.8367 -36.8367 -15.1066   6.2068   6.2068   6.2068
    14.8806  26.5532  26.5532  26.5532  30.4436  32.7088  32.7088  36.6491

     occupation numbers 
     1.0000   1.0000   1.0000   1.0000   1.0000   1.0000   1.0000   1.0000
     0.0000   0.0000   0.0000   0.0000   0.0000   0.0000   0.0000   0.0000

          k =-0.1667 0.1667-0.1667 (  1489 PWs)   bands (ev):

   -78.9475 -36.8636 -36.8429 -36.8429 -14.7520   4.7058   6.0440   6.0440
    16.4398  24.1583  27.2254  27.2254  31.5861  31.5861  33.7417  36.8011

     occupation numbers 
     1.0000   1.0000   1.0000   1.0000   1.0000   1.0000   1.0000   1.0000
     0.0000   0.0000   0.0000   0.0000   0.0000   0.0000   0.0000   0.0000

          k =-0.3333 0.3333-0.3333 (  1501 PWs)   bands (ev):

   -78.9363 -36.9134 -36.8423 -36.8423 -14.1321   2.1257   5.6076   5.6076
    18.1524  23.3780  27.7416  27.7416  32.3376  32.3376  32.9876  40.9287

     occupation numbers 
     1.0000   1.0000   1.0000   1.0000   1.0000   1.0000   1.0000   1.0000
     0.0000   0.0000   0.0000   0.0000   0.0000   0.0000   0.0000   0.0000

          k = 0.5000-0.5000 0.5000 (  1502 PWs)   bands (ev):

   -78.9420 -36.9390 -36.8486 -36.8486 -13.7081   1.0498   5.4473   5.4473
    18.3420  24.1558  27.5302  27.5302  32.2574  34.1714  34.1714  40.3106

     occupation numbers 
     1.0000   1.0000   1.0000   1.0000   1.0000   1.0000   1.0000   1.0000
     0.0000   0.0000   0.0000   0.0000   0.0000   0.0000   0.0000   0.0000

          k = 0.0000 0.3333 0.0000 (  1491 PWs)   bands (ev):

   -78.9493 -36.8650 -36.8483 -36.8483 -14.6468   4.6139   5.8484   5.8484
    16.9743  23.2099  27.6983  27.6983  29.0312  33.6003  35.6487  37.8237

     occupation numbers 
     1.0000   1.0000   1.0000   1.0000   1.0000   1.0000   1.0000   1.0000
     0.0000   0.0000   0.0000   0.0000   0.0000   0.0000   0.0000   0.0000

          k =-0.1667 0.5000-0.1667 (  1484 PWs)   bands (ev):

   -78.9437 -36.9004 -36.8547 -36.8504 -14.1361   2.8150   5.3708   5.4254
    18.8828  22.1259  26.5014  28.5256  29.7588  34.2210  36.5635  41.1159

     occupation numbers 
     1.0000   1.0000   1.0000   1.0000   1.0000   1.0000   1.0000   1.0000
     0.0000   0.0000   0.0000   0.0000   0.0000   0.0000   0.0000   0.0000

          k = 0.6667-0.3333 0.6667 (  1493 PWs)   bands (ev):

   -78.9437 -36.9296 -36.8628 -36.8540 -13.6479   1.5729   4.7007   5.2789
    19.5408  23.4614  25.3335  28.3830  31.4724  35.0143  35.9114  41.1299

     occupation numbers 
     1.0000   1.0000   1.0000   1.0000   1.0000   1.0000   1.0000   1.0000
     0.0000   0.0000   0.0000   0.0000   0.0000   0.0000   0.0000   0.0000

          k = 0.5000-0.1667 0.5000 (  1499 PWs)   bands (ev):

   -78.9420 -36.9217 -36.8639 -36.8486 -13.7737   1.8795   4.5855   5.4701
    19.5904  23.1789  25.6589  28.4491  31.9324  32.7789  36.0282  41.6523

     occupation numbers 
     1.0000   1.0000   1.0000   1.0000   1.0000   1.0000   1.0000   1.0000
     0.0000   0.0000   0.0000   0.0000   0.0000   0.0000   0.0000   0.0000

          k = 0.3333 0.0000 0.3333 (  1492 PWs)   bands (ev):

   -78.9474 -36.8900 -36.8587 -36.8422 -14.3153   3.3630   5.3112   5.8983
    18.1936  22.8564  26.9734  28.4969  29.6364  32.5004  36.1881  38.5242

     occupation numbers 
     1.0000   1.0000   1.0000   1.0000   1.0000   1.0000   1.0000   1.0000
     0.0000   0.0000   0.0000   0.0000   0.0000   0.0000   0.0000   0.0000

          k = 0.0000 0.6667 0.0000 (  1479 PWs)   bands (ev):

   -78.9342 -36.8996 -36.8603 -36.8603 -13.9419   2.3926   5.0069   5.0069
    20.0531  20.3677  25.1393  29.9824  29.9824  36.1647  39.2757  41.1921

     occupation numbers 
     1.0000   1.0000   1.0000   1.0000   1.0000   1.0000   1.0000   1.0000
     0.0000   0.0000   0.0000   0.0000   0.0000   0.0000   0.0000   0.0000

          k = 0.8333-0.1667 0.8333 (  1501 PWs)   bands (ev):

   -78.9401 -36.9130 -36.8776 -36.8667 -13.5703   2.0299   4.1618   4.8665
    20.2170  21.6603  24.2309  30.1762  30.2945  37.5245  38.8284  40.6164

     occupation numbers 
     1.0000   1.0000   1.0000   1.0000   1.0000   1.0000   1.0000   1.0000
     0.0000   0.0000   0.0000   0.0000   0.0000   0.0000   0.0000   0.0000

          k = 0.6667-0.0000 0.6667 (  1516 PWs)   bands (ev):

   -78.9327 -36.9012 -36.8937 -36.8541 -13.5722   2.6368   2.8373   5.0441
    20.9795  23.3006  23.7012  29.5047  30.1471  34.3752  39.5820  40.3673

     occupation numbers 
     1.0000   1.0000   1.0000   1.0000   1.0000   1.0000   1.0000   1.0000
     0.0000   0.0000   0.0000   0.0000   0.0000   0.0000   0.0000   0.0000

          k = 0.0000-1.0000 0.0000 (  1524 PWs)   bands (ev):

   -78.9421 -36.9233 -36.8724 -36.8724 -13.4986   1.6914   4.7024   4.7024
    19.3465  20.6832  24.7128  31.1286  31.1286  37.2118  38.5136  42.3805

     occupation numbers 
     1.0000   1.0000   1.0000   1.0000   1.0000   1.0000   1.0000   1.0000
     0.0000   0.0000   0.0000   0.0000   0.0000   0.0000   0.0000   0.0000

          k = 0.6667-0.3333 1.0000 (  1492 PWs)   bands (ev):

   -78.9437 -36.9107 -36.8752 -36.8585 -13.7097   2.2963   4.2303   5.1613
    20.8776  21.6467  24.6586  28.8531  30.9543  34.4193  39.7050  40.4693

     occupation numbers 
     1.0000   1.0000   1.0000   1.0000   1.0000   1.0000   1.0000   1.0000
     0.0000   0.0000   0.0000   0.0000   0.0000   0.0000   0.0000   0.0000

          k = 0.5000-0.1667 0.8333 (  1498 PWs)   bands (ev):

   -78.9401 -36.9132 -36.8852 -36.8606 -13.5138   2.2446   3.5200   4.8665
    21.3026  22.9914  23.8102  28.0060  32.1641  33.7422  39.8169  40.2438

     occupation numbers 
     1.0000   1.0000   1.0000   1.0000   1.0000   1.0000   1.0000   1.0000
     0.0000   0.0000   0.0000   0.0000   0.0000   0.0000   0.0000   0.0000

          k =-0.3333-1.0000 0.0000 (  1510 PWs)   bands (ev):

   -78.9419 -36.9091 -36.8859 -36.8745 -13.4446   2.2880   3.8058   4.3912
    21.0735  22.3341  23.7317  28.0750  32.1679  36.2416  38.0900  40.6572

     occupation numbers 
     1.0000   1.0000   1.0000   1.0000   1.0000   1.0000   1.0000   1.0000
     0.0000   0.0000   0.0000   0.0000   0.0000   0.0000   0.0000   0.0000

     highest occupied, lowest unoccupied level (ev):     6.2068   14.8806

!    total energy              =    -140.85419610 Ry
     estimated scf accuracy    <          3.6E-09 Ry

     convergence has been achieved in   1 iterations

     Using ACE for calculation of exact exchange
     ACE projected onto    16 (nbndproj) and applied to    16 (nbnd) bands

!!   total energy              =    -140.85419610 Ry
     Harris-Foulkes estimate   =    -140.85419611 Ry
     est. exchange err (dexx)  =          5.3E-09 Ry
     - averaged Fock potential =      26.19016159 Ry
     + Fock energy (ACE)       =     -13.09512720 Ry

     EXX self-consistency reached

     Writing all to output data dir ./out/mgo.save/ :
     XML data file, charge density, pseudopotentials, collected wavefunctions

     init_run     :      1.67s CPU      0.44s WALL (       1 calls)
     electrons    :     38.06s CPU      5.45s WALL (       6 calls)

     Called by init_run:
     aceinit0     :      0.00s CPU      0.00s WALL (       1 calls)
     wfcinit      :      0.95s CPU      0.21s WALL (       1 calls)
     wfcinit:wfcr :      0.83s CPU      0.19s WALL (      16 calls)
     potinit      :      0.05s CPU      0.02s WALL (       1 calls)
     hinit0       :      0.65s CPU      0.21s WALL (       1 calls)

     Called by electrons:
     c_bands      :     31.45s CPU      4.52s WALL (      25 calls)
     sum_band     :      5.52s CPU      0.79s WALL (      25 calls)
     v_of_rho     :      0.91s CPU      0.13s WALL (      26 calls)
     v_h          :      0.03s CPU      0.00s WALL (      26 calls)
     v_xc         :      0.88s CPU      0.13s WALL (      26 calls)
     mix_rho      :      0.11s CPU      0.01s WALL (      25 calls)

     Called by c_bands:
     init_us_2    :      0.80s CPU      0.11s WALL (     816 calls)
     cegterg      :     30.48s CPU      4.36s WALL (     400 calls)

     Called by sum_band:
     sum_band:wei :      0.00s CPU      0.00s WALL (      25 calls)
     sum_band:loo :      5.43s CPU      0.77s WALL (      25 calls)
     sum_band:buf :      0.04s CPU      0.01s WALL (     400 calls)
     sum_band:ini :      0.47s CPU      0.05s WALL (     400 calls)

     Called by *egterg:
     cdiaghg      :      1.33s CPU      0.20s WALL (    1301 calls)
     cegterg:over :      0.87s CPU      0.13s WALL (     997 calls)
     cegterg:upda :      0.42s CPU      0.07s WALL (     997 calls)
     cegterg:last :      0.64s CPU      0.10s WALL (     837 calls)
     h_psi        :     27.02s CPU      3.89s WALL (    1413 calls)
     g_psi        :      0.46s CPU      0.07s WALL (     997 calls)

     Called by h_psi:
     h_psi:calbec :      0.91s CPU      0.10s WALL (    1413 calls)
     vloc_psi     :     24.84s CPU      3.60s WALL (    1413 calls)
                                        0.00s GPU  (    1413 calls)
     add_vuspsi   :      0.38s CPU      0.05s WALL (    1413 calls)

     General routines
     calbec       :      1.48s CPU      0.22s WALL (    2793 calls)
     fft          :      0.50s CPU      0.15s WALL (     253 calls)
     ffts         :      0.00s CPU      0.00s WALL (      25 calls)
     fftw         :     22.19s CPU      3.27s WALL (   39970 calls)
     fftc         :    245.53s CPU     56.87s WALL ( 1327104 calls)
     fftcw        :      1.56s CPU      0.35s WALL (    4608 calls)


     EXX routines
     exx_grid     :      0.01s CPU      0.00s WALL (       1 calls)
     exxinit      :      5.62s CPU      1.15s WALL (       6 calls)
     vexx         :    373.35s CPU     86.41s WALL (      96 calls)
     matcalc      :      0.60s CPU      0.12s WALL (    1380 calls)
     aceupdate    :      0.07s CPU      0.02s WALL (      96 calls)
     vexxace      :      0.92s CPU      0.16s WALL (    1108 calls)
     aceinit      :    373.49s CPU     86.45s WALL (      96 calls)

     PWSCF        :   6m59.50s CPU   1m33.63s WALL


   This run was terminated on:  19: 1:10  15Jun2026            

=------------------------------------------------------------------------------=
   JOB DONE.
=------------------------------------------------------------------------------=
