
     Program PWSCF v.7.5 starts on 15Jun2026 at 16:41:53 

     This program is part of the open-source Quantum ESPRESSO suite
     for quantum simulation of materials; please cite
         "P. Giannozzi et al., J. Phys.:Condens. Matter 21 395502 (2009);
         "P. Giannozzi et al., J. Phys.:Condens. Matter 29 465901 (2017);
         "P. Giannozzi et al., J. Chem. Phys. 152 154105 (2020);
          URL http://www.quantum-espresso.org", 
     in publications or presentations arising from this work. More details at
     http://www.quantum-espresso.org/quote

     Parallel version (MPI & OpenMP), running on       4 processor cores
     Number of MPI processes:                 1
     Threads/MPI process:                     4

     MPI processes distributed on     1 nodes
     14509 MiB available memory on the printing compute node when the environment starts

     Reading input from mgo.scf.in

     Current dimensions of program PWSCF are:
     Max number of different atomic species (ntypx) = 10
     Max number of k-points (npk) =  40000
     Max angular momentum in pseudopotentials (lmaxx) =  4

     IMPORTANT: XC functional enforced from input :
     Exchange-correlation= PBE0
                           (   6   4   8   4   0   0   0)
     EXX-fraction              =        0.25
     Any further DFT definition will be discarded
     Please, verify this is what you really want

     EXX fraction changed:   0.31

     Subspace diagonalization in iterative solution of the eigenvalue problem:
     a serial algorithm will be used

     EXX: q-point mesh:     3    3    3
     EXX: setup a grid of 189 q-points centered on each k-point
     (k+q)-points:
   0.0000000   0.0000000   0.0000000         1    1
  -0.3333333   0.3333333  -0.3333333         3    1
   0.3333333  -0.3333333   0.3333333         3   -1
   0.3333333   0.3333333   0.3333333         3    3
   0.0000000   0.6666667   0.0000000        10    1
   0.6666667   0.0000000   0.6666667        12    1
  -0.3333333  -0.3333333  -0.3333333         3   -3
  -0.6666667   0.0000000  -0.6666667        12   -1
   0.0000000  -0.6666667   0.0000000        10   -1
  -0.3333333  -0.3333333   0.3333333         3    4
  -0.6666667   0.0000000   0.0000000        10   -5
   0.0000000  -0.6666667   0.6666667        12   -5
   0.0000000   0.0000000   0.6666667        10   13
  -0.3333333   0.3333333   0.3333333         3   -2
  -0.6666667   0.6666667   0.0000000        12   13
  -0.6666667  -0.6666667   0.0000000        12   14
   0.0000000   0.6666667   0.6666667        12   -6
   0.6666667   0.0000000  -0.6666667        12   -2
   0.3333333   0.3333333  -0.3333333         3   -4
   0.0000000   0.6666667  -0.6666667        12    5
   0.6666667   0.0000000   0.0000000        10    5
   0.6666667   0.6666667   0.0000000        12  -14
  -0.6666667   0.0000000   0.6666667        12    2
   0.0000000  -0.6666667  -0.6666667        12    6
   0.0000000   0.0000000  -0.6666667        10  -13
   0.6666667  -0.6666667   0.0000000        12  -13
   0.3333333  -0.3333333  -0.3333333         3    2
  -0.1666667   0.1666667  -0.1666667         2    1
   0.5000000  -0.5000000   0.5000000         4    1
   0.1666667  -0.1666667   0.1666667         2   -1
   0.1666667   0.5000000   0.1666667         6    3
   0.8333333  -0.1666667   0.8333333        11    1
   0.5000000   0.1666667   0.5000000         8   -3
  -0.5000000  -0.1666667  -0.5000000         8    3
  -0.8333333   0.1666667  -0.8333333        11   -1
  -0.1666667  -0.5000000  -0.1666667         6   -3
  -0.5000000  -0.1666667   0.1666667         6   -8
   0.1666667  -0.8333333   0.8333333        11   -5
  -0.1666667  -0.5000000   0.5000000         8    8
  -0.1666667   0.1666667   0.5000000         6   15
  -0.5000000   0.5000000   0.1666667         8  -15
  -0.8333333   0.8333333  -0.1666667        11   13
   0.1666667   0.5000000   0.8333333        15    7
   0.8333333  -0.1666667  -0.5000000        15   12
   0.5000000   0.1666667  -0.8333333        15    4
   0.1666667   0.5000000  -0.5000000         8   -8
  -0.1666667   0.8333333  -0.8333333        11    5
   0.5000000   0.1666667  -0.1666667         6    8
  -0.5000000  -0.1666667   0.8333333        15   -4
  -0.8333333   0.1666667   0.5000000        15  -12
  -0.1666667  -0.5000000  -0.8333333        15   -7
   0.8333333  -0.8333333   0.1666667        11  -13
   0.5000000  -0.5000000  -0.1666667         8   15
   0.1666667  -0.1666667  -0.5000000         6  -15
   0.0000000   0.3333333   0.0000000         5    1
   0.6666667  -0.3333333   0.6666667         7    1
   0.3333333   0.0000000   0.3333333         9    1
  -0.6666667  -0.3333333  -0.6666667         7    3
   0.0000000  -1.0000000   0.0000000        13    1
   0.6666667   0.3333333   0.6666667         7   -3
  -0.3333333   0.0000000  -0.3333333         9   -1
  -0.6666667   0.3333333  -0.6666667         7   -1
   0.0000000  -0.3333333   0.0000000         5   -1
  -0.3333333   0.0000000   0.3333333         9    2
   0.3333333  -0.6666667   1.0000000        14   -5
   1.0000000   0.6666667  -0.3333333        14   17
  -1.0000000  -0.6666667  -0.3333333        14   18
   0.6666667  -0.3333333  -0.6666667         7   -2
   0.3333333   0.0000000  -1.0000000        16   13
   0.3333333   0.6666667   1.0000000        14    7
  -1.0000000   0.0000000  -0.3333333        16   21
   0.6666667   0.3333333  -0.6666667         7    4
  -0.6666667  -0.3333333   0.6666667         7   -4
   1.0000000   0.0000000   0.3333333        16  -21
  -0.3333333  -0.6666667  -1.0000000        14   -7
  -0.3333333   0.0000000   1.0000000        16  -13
  -0.6666667   0.3333333   0.6666667         7    2
   1.0000000   0.6666667   0.3333333        14  -18
  -1.0000000  -0.6666667   0.3333333        14  -17
  -0.3333333   0.6666667  -1.0000000        14    5
   0.3333333   0.0000000  -0.3333333         9   -2
  -0.1666667   0.5000000  -0.1666667         6    1
   0.5000000  -0.1666667   0.5000000         8    1
   0.1666667   0.1666667   0.1666667         2    3
  -0.8333333  -0.1666667  -0.8333333        11    3
   0.8333333   0.1666667   0.8333333        11   -3
  -0.5000000  -0.5000000  -0.5000000         4    3
  -0.5000000   0.1666667  -0.5000000         8   -1
   0.1666667  -0.5000000   0.1666667         6   -1
  -0.1666667  -0.1666667  -0.1666667         2   -3
  -0.5000000   0.1666667   0.1666667         6    6
   0.1666667  -0.5000000   0.8333333        15   -5
  -0.1666667  -0.1666667   0.5000000         6  -14
  -0.1666667   0.5000000   0.5000000         8   -6
   0.5000000  -0.1666667  -0.8333333        15   -2
  -0.8333333  -0.8333333  -0.1666667        11  -16
   0.1666667   0.8333333   0.8333333        11    7
   0.8333333   0.1666667  -0.5000000        15  -11
  -0.5000000  -0.5000000   0.1666667         8   14
  -0.8333333  -0.1666667   0.5000000        15   11
  -0.1666667  -0.8333333  -0.8333333        11   -7
   0.5000000   0.5000000  -0.1666667         8  -14
  -0.5000000   0.1666667   0.8333333        15    2
   0.1666667  -0.5000000  -0.5000000         8    6
   0.8333333   0.8333333   0.1666667        11   16
  -0.1666667   0.5000000  -0.8333333        15    5
   0.5000000  -0.1666667  -0.1666667         6   -6
   0.1666667   0.1666667  -0.5000000         6   14
   0.6666667  -0.3333333   1.0000000        14    1
  -0.6666667   1.0000000  -0.3333333        14   13
   0.0000000   0.3333333   0.3333333         9   -6
   0.0000000  -1.0000000   0.3333333        16   -9
   0.6666667   0.3333333   1.0000000        14   -3
   0.3333333   0.6666667   0.6666667         7    7
   0.3333333  -0.6666667   0.6666667         7   -5
   0.0000000  -0.3333333   0.3333333         9   -5
  -0.3333333   0.0000000   0.0000000         5   -5
   0.3333333  -0.6666667  -0.6666667         7    6
   0.0000000  -0.3333333  -1.0000000        16   17
   0.6666667   1.0000000  -0.3333333        14  -14
  -0.3333333   0.6666667   0.6666667         7   -6
  -0.6666667  -1.0000000   0.3333333        14   14
   0.0000000   0.3333333   1.0000000        16  -17
  -1.0000000   0.0000000   0.0000000        13    5
  -0.3333333  -0.6666667   0.6666667         7    8
   0.3333333   0.6666667  -0.6666667         7   -8
   0.0000000   1.0000000  -0.3333333        16    9
  -0.3333333  -0.6666667  -0.6666667         7   -7
  -0.6666667  -0.3333333  -1.0000000        14    3
  -0.6666667   0.3333333  -1.0000000        14   -1
   0.0000000  -0.3333333  -0.3333333         9    6
   0.6666667  -1.0000000   0.3333333        14  -13
  -0.3333333   0.6666667  -0.6666667         7    5
   0.3333333   0.0000000   0.0000000         5    5
   0.0000000   0.3333333  -0.3333333         9    5
   0.5000000  -0.1666667   0.8333333        15    1
   0.1666667   0.1666667   0.5000000         6  -16
  -0.1666667   0.5000000   0.1666667         6   -2
   0.8333333   0.1666667  -0.8333333        11    4
  -0.5000000  -0.5000000  -0.1666667         8  -16
  -0.8333333  -0.1666667  -0.5000000        15   -9
   0.1666667  -0.5000000   0.5000000         8   -5
  -0.1666667  -0.1666667   0.1666667         2    4
  -0.5000000   0.1666667  -0.1666667         6   -5
   0.1666667  -0.5000000  -0.8333333        15    6
   0.8333333   0.8333333  -0.1666667        11  -14
  -0.5000000   0.1666667   0.5000000         8    2
   0.5000000  -0.1666667  -0.5000000         8   -2
  -0.8333333  -0.8333333   0.1666667        11   14
  -0.1666667   0.5000000   0.8333333        15   -6
  -0.1666667  -0.8333333   0.8333333        11    8
   0.5000000   0.5000000  -0.5000000         4    4
   0.1666667   0.8333333  -0.8333333        11   -8
   0.8333333   0.1666667   0.5000000        15    9
   0.5000000   0.5000000   0.1666667         8   16
  -0.8333333  -0.1666667   0.8333333        11   -4
   0.1666667  -0.5000000  -0.1666667         6    2
  -0.1666667  -0.1666667  -0.5000000         6   16
  -0.5000000   0.1666667  -0.8333333        15   -1
   0.5000000  -0.1666667   0.1666667         6    5
   0.1666667   0.1666667  -0.1666667         2   -4
  -0.1666667   0.5000000  -0.5000000         8    5
  -0.3333333  -1.0000000   0.0000000        16    1
  -0.6666667  -0.6666667  -0.3333333         7  -16
  -1.0000000  -0.3333333  -0.6666667        14   -9
  -1.0000000   0.3333333  -0.6666667        14   10
  -0.3333333  -0.3333333   0.0000000         9   14
   0.3333333  -1.0000000   0.6666667        14   22
  -0.6666667   0.6666667  -0.3333333         7   13
   0.0000000   0.0000000   0.3333333         5   13
  -0.3333333   0.3333333   0.0000000         9   13
  -0.6666667   0.6666667   0.3333333         7  -15
   0.0000000   0.0000000  -1.0000000        13   13
   0.6666667  -0.6666667  -0.3333333         7   15
  -0.3333333   1.0000000   0.6666667        14   21
  -0.6666667  -0.6666667   0.3333333         7   14
  -1.0000000  -0.3333333   0.0000000        16    5
   1.0000000   0.3333333   0.0000000        16   -5
   0.6666667   0.6666667  -0.3333333         7  -14
   0.3333333  -1.0000000  -0.6666667        14  -21
   1.0000000   0.3333333   0.6666667        14    9
   0.6666667   0.6666667   0.3333333         7   16
   0.3333333   1.0000000   0.0000000        16   -1
   0.3333333  -0.3333333   0.0000000         9  -13
   0.0000000   0.0000000  -0.3333333         5  -13
   0.6666667  -0.6666667   0.3333333         7  -13
  -0.3333333   1.0000000  -0.6666667        14  -22
   0.3333333   0.3333333   0.0000000         9  -14
   1.0000000  -0.3333333   0.6666667        14  -10

     G-vector sticks info
     --------------------
     sticks:   dense  smooth     PW     G-vecs:    dense   smooth      PW
     Sum         685     685    211                12039    12039    2085

     Using Slab Decomposition



     bravais-lattice index     =            2
     lattice parameter (alat)  =       7.9104  a.u.
     unit-cell volume          =     123.7472 (a.u.)^3
     number of atoms/cell      =            2
     number of atomic types    =            2
     number of electrons       =        16.00
     number of Kohn-Sham states=           16
     kinetic-energy cutoff     =      80.0000  Ry
     charge density cutoff     =     320.0000  Ry
     cutoff for Fock operator  =     320.0000  Ry
     scf convergence threshold =      1.0E-08
     mixing beta               =       0.7000
     number of iterations used =            8  plain     mixing
     Exchange-correlation= PBE0
                           (   6   4   8   4   0   0   0)
     EXX-fraction              =        0.31

     celldm(1)=   7.910400  celldm(2)=   0.000000  celldm(3)=   0.000000
     celldm(4)=   0.000000  celldm(5)=   0.000000  celldm(6)=   0.000000

     crystal axes: (cart. coord. in units of alat)
               a(1) = (  -0.500000   0.000000   0.500000 )  
               a(2) = (   0.000000   0.500000   0.500000 )  
               a(3) = (  -0.500000   0.500000   0.000000 )  

     reciprocal axes: (cart. coord. in units 2 pi/alat)
               b(1) = ( -1.000000 -1.000000  1.000000 )  
               b(2) = (  1.000000  1.000000  1.000000 )  
               b(3) = ( -1.000000  1.000000 -1.000000 )  


     PseudoPot. # 1 for Mg read from file:
     ../../../pseudos/Mg_ONCV_PBE-1.2.upf
     MD5 check sum: 330956729b1f868fdecd9f5113f6a961
     Pseudo is Norm-conserving, Zval = 10.0
     Generated using ONCVPSP code by D. R. Hamann
     Using radial grid of  602 points,  4 beta functions with: 
                l(1) =   0
                l(2) =   0
                l(3) =   1
                l(4) =   1

     PseudoPot. # 2 for O  read from file:
     ../../../pseudos/O_ONCV_PBE-1.2.upf
     MD5 check sum: e36c48deb68f4e355fffe4602be2c42c
     Pseudo is Norm-conserving, Zval =  6.0
     Generated using ONCVPSP code by D. R. Hamann
     Using radial grid of  602 points,  4 beta functions with: 
                l(1) =   0
                l(2) =   0
                l(3) =   1
                l(4) =   1

     atomic species   valence    mass     pseudopotential
     Mg               10.00    24.30500     Mg( 1.00)
     O                 6.00    15.99900     O ( 1.00)

     48 Sym. Ops., with inversion, found


                                    s                        frac. trans.

      isym =  1     identity                                     

 cryst.   s( 1) = (     1          0          0      )
                  (     0          1          0      )
                  (     0          0          1      )

 cart.    s( 1) = (  1.0000000  0.0000000  0.0000000 )
                  (  0.0000000  1.0000000  0.0000000 )
                  (  0.0000000  0.0000000  1.0000000 )


      isym =  2     180 deg rotation - cart. axis [0,0,1]        

 cryst.   s( 2) = (     0          1         -1      )
                  (     1          0         -1      )
                  (     0          0         -1      )

 cart.    s( 2) = ( -1.0000000  0.0000000  0.0000000 )
                  (  0.0000000 -1.0000000  0.0000000 )
                  (  0.0000000  0.0000000  1.0000000 )


      isym =  3     180 deg rotation - cart. axis [0,1,0]        

 cryst.   s( 3) = (    -1          0          0      )
                  (    -1          0          1      )
                  (    -1          1          0      )

 cart.    s( 3) = ( -1.0000000  0.0000000  0.0000000 )
                  (  0.0000000  1.0000000  0.0000000 )
                  (  0.0000000  0.0000000 -1.0000000 )


      isym =  4     180 deg rotation - cart. axis [1,0,0]        

 cryst.   s( 4) = (     0         -1          1      )
                  (     0         -1          0      )
                  (     1         -1          0      )

 cart.    s( 4) = (  1.0000000  0.0000000  0.0000000 )
                  (  0.0000000 -1.0000000  0.0000000 )
                  (  0.0000000  0.0000000 -1.0000000 )


      isym =  5     180 deg rotation - cart. axis [1,1,0]        

 cryst.   s( 5) = (     0         -1          0      )
                  (    -1          0          0      )
                  (     0          0         -1      )

 cart.    s( 5) = (  0.0000000  1.0000000  0.0000000 )
                  (  1.0000000  0.0000000  0.0000000 )
                  (  0.0000000  0.0000000 -1.0000000 )


      isym =  6     180 deg rotation - cart. axis [1,-1,0]       

 cryst.   s( 6) = (    -1          0          1      )
                  (     0         -1          1      )
                  (     0          0          1      )

 cart.    s( 6) = (  0.0000000 -1.0000000  0.0000000 )
                  ( -1.0000000  0.0000000  0.0000000 )
                  (  0.0000000  0.0000000 -1.0000000 )


      isym =  7      90 deg rotation - cart. axis [0,0,-1]       

 cryst.   s( 7) = (     0          1          0      )
                  (     0          1         -1      )
                  (    -1          1          0      )

 cart.    s( 7) = (  0.0000000  1.0000000  0.0000000 )
                  ( -1.0000000  0.0000000  0.0000000 )
                  (  0.0000000  0.0000000  1.0000000 )


      isym =  8      90 deg rotation - cart. axis [0,0,1]        

 cryst.   s( 8) = (     1          0         -1      )
                  (     1          0          0      )
                  (     1         -1          0      )

 cart.    s( 8) = (  0.0000000 -1.0000000  0.0000000 )
                  (  1.0000000  0.0000000  0.0000000 )
                  (  0.0000000  0.0000000  1.0000000 )


      isym =  9     180 deg rotation - cart. axis [1,0,1]        

 cryst.   s( 9) = (    -1          0          0      )
                  (     0          0         -1      )
                  (     0         -1          0      )

 cart.    s( 9) = (  0.0000000  0.0000000  1.0000000 )
                  (  0.0000000 -1.0000000  0.0000000 )
                  (  1.0000000  0.0000000  0.0000000 )


      isym = 10     180 deg rotation - cart. axis [-1,0,1]       

 cryst.   s(10) = (     1          0          0      )
                  (     1         -1          0      )
                  (     1          0         -1      )

 cart.    s(10) = (  0.0000000  0.0000000 -1.0000000 )
                  (  0.0000000 -1.0000000  0.0000000 )
                  ( -1.0000000  0.0000000  0.0000000 )


      isym = 11      90 deg rotation - cart. axis [0,1,0]        

 cryst.   s(11) = (     0          1         -1      )
                  (    -1          1          0      )
                  (     0          1          0      )

 cart.    s(11) = (  0.0000000  0.0000000  1.0000000 )
                  (  0.0000000  1.0000000  0.0000000 )
                  ( -1.0000000  0.0000000  0.0000000 )


      isym = 12      90 deg rotation - cart. axis [0,-1,0]       

 cryst.   s(12) = (     0         -1          1      )
                  (     0          0          1      )
                  (    -1          0          1      )

 cart.    s(12) = (  0.0000000  0.0000000 -1.0000000 )
                  (  0.0000000  1.0000000  0.0000000 )
                  (  1.0000000  0.0000000  0.0000000 )


      isym = 13     180 deg rotation - cart. axis [0,1,1]        

 cryst.   s(13) = (    -1          1          0      )
                  (     0          1          0      )
                  (     0          1         -1      )

 cart.    s(13) = ( -1.0000000  0.0000000  0.0000000 )
                  (  0.0000000  0.0000000  1.0000000 )
                  (  0.0000000  1.0000000  0.0000000 )


      isym = 14     180 deg rotation - cart. axis [0,1,-1]       

 cryst.   s(14) = (     0          0         -1      )
                  (     0         -1          0      )
                  (    -1          0          0      )

 cart.    s(14) = ( -1.0000000  0.0000000  0.0000000 )
                  (  0.0000000  0.0000000 -1.0000000 )
                  (  0.0000000 -1.0000000  0.0000000 )


      isym = 15      90 deg rotation - cart. axis [-1,0,0]       

 cryst.   s(15) = (     0          0          1      )
                  (    -1          0          1      )
                  (     0         -1          1      )

 cart.    s(15) = (  1.0000000  0.0000000  0.0000000 )
                  (  0.0000000  0.0000000  1.0000000 )
                  (  0.0000000 -1.0000000  0.0000000 )


      isym = 16      90 deg rotation - cart. axis [1,0,0]        

 cryst.   s(16) = (     1         -1          0      )
                  (     1          0         -1      )
                  (     1          0          0      )

 cart.    s(16) = (  1.0000000  0.0000000  0.0000000 )
                  (  0.0000000  0.0000000 -1.0000000 )
                  (  0.0000000  1.0000000  0.0000000 )


      isym = 17     120 deg rotation - cart. axis [-1,-1,-1]     

 cryst.   s(17) = (    -1          0          1      )
                  (    -1          1          0      )
                  (    -1          0          0      )

 cart.    s(17) = (  0.0000000  1.0000000  0.0000000 )
                  (  0.0000000  0.0000000  1.0000000 )
                  (  1.0000000  0.0000000  0.0000000 )


      isym = 18     120 deg rotation - cart. axis [-1,1,1]       

 cryst.   s(18) = (     0          1          0      )
                  (     0          0          1      )
                  (     1          0          0      )

 cart.    s(18) = (  0.0000000 -1.0000000  0.0000000 )
                  (  0.0000000  0.0000000  1.0000000 )
                  ( -1.0000000  0.0000000  0.0000000 )


      isym = 19     120 deg rotation - cart. axis [1,1,-1]       

 cryst.   s(19) = (     1          0         -1      )
                  (     0          0         -1      )
                  (     0          1         -1      )

 cart.    s(19) = (  0.0000000  1.0000000  0.0000000 )
                  (  0.0000000  0.0000000 -1.0000000 )
                  ( -1.0000000  0.0000000  0.0000000 )


      isym = 20     120 deg rotation - cart. axis [1,-1,1]       

 cryst.   s(20) = (     0         -1          0      )
                  (     1         -1          0      )
                  (     0         -1          1      )

 cart.    s(20) = (  0.0000000 -1.0000000  0.0000000 )
                  (  0.0000000  0.0000000 -1.0000000 )
                  (  1.0000000  0.0000000  0.0000000 )


      isym = 21     120 deg rotation - cart. axis [1,1,1]        

 cryst.   s(21) = (     0          0         -1      )
                  (     0          1         -1      )
                  (     1          0         -1      )

 cart.    s(21) = (  0.0000000  0.0000000  1.0000000 )
                  (  1.0000000  0.0000000  0.0000000 )
                  (  0.0000000  1.0000000  0.0000000 )


      isym = 22     120 deg rotation - cart. axis [-1,1,-1]      

 cryst.   s(22) = (    -1          1          0      )
                  (    -1          0          0      )
                  (    -1          0          1      )

 cart.    s(22) = (  0.0000000  0.0000000  1.0000000 )
                  ( -1.0000000  0.0000000  0.0000000 )
                  (  0.0000000 -1.0000000  0.0000000 )


      isym = 23     120 deg rotation - cart. axis [1,-1,-1]      

 cryst.   s(23) = (     0          0          1      )
                  (     1          0          0      )
                  (     0          1          0      )

 cart.    s(23) = (  0.0000000  0.0000000 -1.0000000 )
                  ( -1.0000000  0.0000000  0.0000000 )
                  (  0.0000000  1.0000000  0.0000000 )


      isym = 24     120 deg rotation - cart. axis [-1,-1,1]      

 cryst.   s(24) = (     1         -1          0      )
                  (     0         -1          1      )
                  (     0         -1          0      )

 cart.    s(24) = (  0.0000000  0.0000000 -1.0000000 )
                  (  1.0000000  0.0000000  0.0000000 )
                  (  0.0000000 -1.0000000  0.0000000 )


      isym = 25     inversion                                    

 cryst.   s(25) = (    -1          0          0      )
                  (     0         -1          0      )
                  (     0          0         -1      )

 cart.    s(25) = ( -1.0000000  0.0000000  0.0000000 )
                  (  0.0000000 -1.0000000  0.0000000 )
                  (  0.0000000  0.0000000 -1.0000000 )


      isym = 26     inv. 180 deg rotation - cart. axis [0,0,1]   

 cryst.   s(26) = (     0         -1          1      )
                  (    -1          0          1      )
                  (     0          0          1      )

 cart.    s(26) = (  1.0000000  0.0000000  0.0000000 )
                  (  0.0000000  1.0000000  0.0000000 )
                  (  0.0000000  0.0000000 -1.0000000 )


      isym = 27     inv. 180 deg rotation - cart. axis [0,1,0]   

 cryst.   s(27) = (     1          0          0      )
                  (     1          0         -1      )
                  (     1         -1          0      )

 cart.    s(27) = (  1.0000000  0.0000000  0.0000000 )
                  (  0.0000000 -1.0000000  0.0000000 )
                  (  0.0000000  0.0000000  1.0000000 )


      isym = 28     inv. 180 deg rotation - cart. axis [1,0,0]   

 cryst.   s(28) = (     0          1         -1      )
                  (     0          1          0      )
                  (    -1          1          0      )

 cart.    s(28) = ( -1.0000000  0.0000000  0.0000000 )
                  (  0.0000000  1.0000000  0.0000000 )
                  (  0.0000000  0.0000000  1.0000000 )


      isym = 29     inv. 180 deg rotation - cart. axis [1,1,0]   

 cryst.   s(29) = (     0          1          0      )
                  (     1          0          0      )
                  (     0          0          1      )

 cart.    s(29) = (  0.0000000 -1.0000000  0.0000000 )
                  ( -1.0000000  0.0000000  0.0000000 )
                  (  0.0000000  0.0000000  1.0000000 )


      isym = 30     inv. 180 deg rotation - cart. axis [1,-1,0]  

 cryst.   s(30) = (     1          0         -1      )
                  (     0          1         -1      )
                  (     0          0         -1      )

 cart.    s(30) = (  0.0000000  1.0000000  0.0000000 )
                  (  1.0000000  0.0000000  0.0000000 )
                  (  0.0000000  0.0000000  1.0000000 )


      isym = 31     inv.  90 deg rotation - cart. axis [0,0,-1]  

 cryst.   s(31) = (     0         -1          0      )
                  (     0         -1          1      )
                  (     1         -1          0      )

 cart.    s(31) = (  0.0000000 -1.0000000  0.0000000 )
                  (  1.0000000  0.0000000  0.0000000 )
                  (  0.0000000  0.0000000 -1.0000000 )


      isym = 32     inv.  90 deg rotation - cart. axis [0,0,1]   

 cryst.   s(32) = (    -1          0          1      )
                  (    -1          0          0      )
                  (    -1          1          0      )

 cart.    s(32) = (  0.0000000  1.0000000  0.0000000 )
                  ( -1.0000000  0.0000000  0.0000000 )
                  (  0.0000000  0.0000000 -1.0000000 )


      isym = 33     inv. 180 deg rotation - cart. axis [1,0,1]   

 cryst.   s(33) = (     1          0          0      )
                  (     0          0          1      )
                  (     0          1          0      )

 cart.    s(33) = (  0.0000000  0.0000000 -1.0000000 )
                  (  0.0000000  1.0000000  0.0000000 )
                  ( -1.0000000  0.0000000  0.0000000 )


      isym = 34     inv. 180 deg rotation - cart. axis [-1,0,1]  

 cryst.   s(34) = (    -1          0          0      )
                  (    -1          1          0      )
                  (    -1          0          1      )

 cart.    s(34) = (  0.0000000  0.0000000  1.0000000 )
                  (  0.0000000  1.0000000  0.0000000 )
                  (  1.0000000  0.0000000  0.0000000 )


      isym = 35     inv.  90 deg rotation - cart. axis [0,1,0]   

 cryst.   s(35) = (     0         -1          1      )
                  (     1         -1          0      )
                  (     0         -1          0      )

 cart.    s(35) = (  0.0000000  0.0000000 -1.0000000 )
                  (  0.0000000 -1.0000000  0.0000000 )
                  (  1.0000000  0.0000000  0.0000000 )


      isym = 36     inv.  90 deg rotation - cart. axis [0,-1,0]  

 cryst.   s(36) = (     0          1         -1      )
                  (     0          0         -1      )
                  (     1          0         -1      )

 cart.    s(36) = (  0.0000000  0.0000000  1.0000000 )
                  (  0.0000000 -1.0000000  0.0000000 )
                  ( -1.0000000  0.0000000  0.0000000 )


      isym = 37     inv. 180 deg rotation - cart. axis [0,1,1]   

 cryst.   s(37) = (     1         -1          0      )
                  (     0         -1          0      )
                  (     0         -1          1      )

 cart.    s(37) = (  1.0000000  0.0000000  0.0000000 )
                  (  0.0000000  0.0000000 -1.0000000 )
                  (  0.0000000 -1.0000000  0.0000000 )


      isym = 38     inv. 180 deg rotation - cart. axis [0,1,-1]  

 cryst.   s(38) = (     0          0          1      )
                  (     0          1          0      )
                  (     1          0          0      )

 cart.    s(38) = (  1.0000000  0.0000000  0.0000000 )
                  (  0.0000000  0.0000000  1.0000000 )
                  (  0.0000000  1.0000000  0.0000000 )


      isym = 39     inv.  90 deg rotation - cart. axis [-1,0,0]  

 cryst.   s(39) = (     0          0         -1      )
                  (     1          0         -1      )
                  (     0          1         -1      )

 cart.    s(39) = ( -1.0000000  0.0000000  0.0000000 )
                  (  0.0000000  0.0000000 -1.0000000 )
                  (  0.0000000  1.0000000  0.0000000 )


      isym = 40     inv.  90 deg rotation - cart. axis [1,0,0]   

 cryst.   s(40) = (    -1          1          0      )
                  (    -1          0          1      )
                  (    -1          0          0      )

 cart.    s(40) = ( -1.0000000  0.0000000  0.0000000 )
                  (  0.0000000  0.0000000  1.0000000 )
                  (  0.0000000 -1.0000000  0.0000000 )


      isym = 41     inv. 120 deg rotation - cart. axis [-1,-1,-1]

 cryst.   s(41) = (     1          0         -1      )
                  (     1         -1          0      )
                  (     1          0          0      )

 cart.    s(41) = (  0.0000000 -1.0000000  0.0000000 )
                  (  0.0000000  0.0000000 -1.0000000 )
                  ( -1.0000000  0.0000000  0.0000000 )


      isym = 42     inv. 120 deg rotation - cart. axis [-1,1,1]  

 cryst.   s(42) = (     0         -1          0      )
                  (     0          0         -1      )
                  (    -1          0          0      )

 cart.    s(42) = (  0.0000000  1.0000000  0.0000000 )
                  (  0.0000000  0.0000000 -1.0000000 )
                  (  1.0000000  0.0000000  0.0000000 )


      isym = 43     inv. 120 deg rotation - cart. axis [1,1,-1]  

 cryst.   s(43) = (    -1          0          1      )
                  (     0          0          1      )
                  (     0         -1          1      )

 cart.    s(43) = (  0.0000000 -1.0000000  0.0000000 )
                  (  0.0000000  0.0000000  1.0000000 )
                  (  1.0000000  0.0000000  0.0000000 )


      isym = 44     inv. 120 deg rotation - cart. axis [1,-1,1]  

 cryst.   s(44) = (     0          1          0      )
                  (    -1          1          0      )
                  (     0          1         -1      )

 cart.    s(44) = (  0.0000000  1.0000000  0.0000000 )
                  (  0.0000000  0.0000000  1.0000000 )
                  ( -1.0000000  0.0000000  0.0000000 )


      isym = 45     inv. 120 deg rotation - cart. axis [1,1,1]   

 cryst.   s(45) = (     0          0          1      )
                  (     0         -1          1      )
                  (    -1          0          1      )

 cart.    s(45) = (  0.0000000  0.0000000 -1.0000000 )
                  ( -1.0000000  0.0000000  0.0000000 )
                  (  0.0000000 -1.0000000  0.0000000 )


      isym = 46     inv. 120 deg rotation - cart. axis [-1,1,-1] 

 cryst.   s(46) = (     1         -1          0      )
                  (     1          0          0      )
                  (     1          0         -1      )

 cart.    s(46) = (  0.0000000  0.0000000 -1.0000000 )
                  (  1.0000000  0.0000000  0.0000000 )
                  (  0.0000000  1.0000000  0.0000000 )


      isym = 47     inv. 120 deg rotation - cart. axis [1,-1,-1] 

 cryst.   s(47) = (     0          0         -1      )
                  (    -1          0          0      )
                  (     0         -1          0      )

 cart.    s(47) = (  0.0000000  0.0000000  1.0000000 )
                  (  1.0000000  0.0000000  0.0000000 )
                  (  0.0000000 -1.0000000  0.0000000 )


      isym = 48     inv. 120 deg rotation - cart. axis [-1,-1,1] 

 cryst.   s(48) = (    -1          1          0      )
                  (     0          1         -1      )
                  (     0          1          0      )

 cart.    s(48) = (  0.0000000  0.0000000  1.0000000 )
                  ( -1.0000000  0.0000000  0.0000000 )
                  (  0.0000000  1.0000000  0.0000000 )


     point group O_h (m-3m) 
     there are 10 classes
     the character table:

       E     8C3   3C2   6C4   6C2'  i     8S6   3s_h  6S4   6s_d 
A_1g   1.00  1.00  1.00  1.00  1.00  1.00  1.00  1.00  1.00  1.00
A_2g   1.00  1.00  1.00 -1.00 -1.00  1.00  1.00  1.00 -1.00 -1.00
E_g    2.00 -1.00  2.00  0.00  0.00  2.00 -1.00  2.00  0.00  0.00
T_1g   3.00  0.00 -1.00  1.00 -1.00  3.00  0.00 -1.00  1.00 -1.00
T_2g   3.00  0.00 -1.00 -1.00  1.00  3.00  0.00 -1.00 -1.00  1.00
A_1u   1.00  1.00  1.00  1.00  1.00 -1.00 -1.00 -1.00 -1.00 -1.00
A_2u   1.00  1.00  1.00 -1.00 -1.00 -1.00 -1.00 -1.00  1.00  1.00
E_u    2.00 -1.00  2.00  0.00  0.00 -2.00  1.00 -2.00  0.00  0.00
T_1u   3.00  0.00 -1.00  1.00 -1.00 -3.00  0.00  1.00 -1.00  1.00
T_2u   3.00  0.00 -1.00 -1.00  1.00 -3.00  0.00  1.00  1.00 -1.00

     the symmetry operations in each class and the name of the first element:

     E        1
          identity                                               
     8C3     17   19   20   18   24   21   22   23
          120 deg rotation - cart. axis [-1,-1,-1]               
     3C2      2    4    3
          180 deg rotation - cart. axis [0,0,1]                  
     6C4      7    8   15   16   12   11
           90 deg rotation - cart. axis [0,0,-1]                 
     6C2'     5    6   14   13   10    9
          180 deg rotation - cart. axis [1,1,0]                  
     i       25
          inversion                                              
     8S6     41   43   44   42   48   45   46   47
          inv. 120 deg rotation - cart. axis [-1,-1,-1]          
     3s_h    26   28   27
          inv. 180 deg rotation - cart. axis [0,0,1]             
     6S4     31   32   39   40   36   35
          inv.  90 deg rotation - cart. axis [0,0,-1]            
     6s_d    29   30   38   37   34   33
          inv. 180 deg rotation - cart. axis [1,1,0]             

   Cartesian axes

     site n.     atom                  positions (alat units)
         1        Mg     tau(   1) = (   0.0000000   0.0000000   0.0000000  )
         2        O      tau(   2) = (  -0.5000000   0.5000000   0.5000000  )

   Crystallographic axes

     site n.     atom                  positions (cryst. coord.)
         1        Mg     tau(   1) = (  0.0000000  0.0000000  0.0000000  )
         2        O      tau(   2) = (  0.5000000  0.5000000  0.5000000  )

     number of k points=    16
                       cart. coord. in units 2pi/alat
        k(    1) = (   0.0000000   0.0000000   0.0000000), wk =   0.0092593
        k(    2) = (  -0.1666667   0.1666667  -0.1666667), wk =   0.0740741
        k(    3) = (  -0.3333333   0.3333333  -0.3333333), wk =   0.0740741
        k(    4) = (   0.5000000  -0.5000000   0.5000000), wk =   0.0370370
        k(    5) = (   0.0000000   0.3333333   0.0000000), wk =   0.0555556
        k(    6) = (  -0.1666667   0.5000000  -0.1666667), wk =   0.2222222
        k(    7) = (   0.6666667  -0.3333333   0.6666667), wk =   0.2222222
        k(    8) = (   0.5000000  -0.1666667   0.5000000), wk =   0.2222222
        k(    9) = (   0.3333333   0.0000000   0.3333333), wk =   0.1111111
        k(   10) = (   0.0000000   0.6666667   0.0000000), wk =   0.0555556
        k(   11) = (   0.8333333  -0.1666667   0.8333333), wk =   0.2222222
        k(   12) = (   0.6666667  -0.0000000   0.6666667), wk =   0.1111111
        k(   13) = (   0.0000000  -1.0000000   0.0000000), wk =   0.0277778
        k(   14) = (   0.6666667  -0.3333333   1.0000000), wk =   0.2222222
        k(   15) = (   0.5000000  -0.1666667   0.8333333), wk =   0.2222222
        k(   16) = (  -0.3333333  -1.0000000   0.0000000), wk =   0.1111111

                       cryst. coord.
        k(    1) = (   0.0000000   0.0000000   0.0000000), wk =   0.0092593
        k(    2) = (   0.0000000   0.0000000   0.1666667), wk =   0.0740741
        k(    3) = (   0.0000000   0.0000000   0.3333333), wk =   0.0740741
        k(    4) = (   0.0000000   0.0000000  -0.5000000), wk =   0.0370370
        k(    5) = (   0.0000000   0.1666667   0.1666667), wk =   0.0555556
        k(    6) = (   0.0000000   0.1666667   0.3333333), wk =   0.2222222
        k(    7) = (   0.0000000   0.1666667  -0.5000000), wk =   0.2222222
        k(    8) = (   0.0000000   0.1666667  -0.3333333), wk =   0.2222222
        k(    9) = (   0.0000000   0.1666667  -0.1666667), wk =   0.1111111
        k(   10) = (   0.0000000   0.3333333   0.3333333), wk =   0.0555556
        k(   11) = (   0.0000000   0.3333333  -0.5000000), wk =   0.2222222
        k(   12) = (   0.0000000   0.3333333  -0.3333333), wk =   0.1111111
        k(   13) = (   0.0000000  -0.5000000  -0.5000000), wk =   0.0277778
        k(   14) = (   0.1666667   0.3333333  -0.5000000), wk =   0.2222222
        k(   15) = (   0.1666667   0.3333333  -0.3333333), wk =   0.2222222
        k(   16) = (   0.1666667  -0.5000000  -0.3333333), wk =   0.1111111

     Dense  grid:    12039 G-vectors     FFT dimensions: (  32,  32,  32)

     Dynamical RAM for                 wfc:       0.36 MB

     Dynamical RAM for     wfc (w. buffer):       6.20 MB

     Dynamical RAM for                 EXX:    1111.22 MB

     Dynamical RAM for           str. fact:       0.37 MB

     Dynamical RAM for           local pot:       0.00 MB

     Dynamical RAM for          nlocal pot:       0.36 MB

     Dynamical RAM for                qrad:       0.91 MB

     Dynamical RAM for          rho,v,vnew:       1.30 MB

     Dynamical RAM for               rhoin:       0.43 MB

     Dynamical RAM for            rho*nmix:       2.94 MB

     Dynamical RAM for           G-vectors:       0.78 MB

     Dynamical RAM for          h,s,v(r/c):       0.05 MB

     Dynamical RAM for          <psi|beta>:       0.00 MB

     Dynamical RAM for                 psi:       0.73 MB

     Dynamical RAM for                hpsi:       0.73 MB

     Dynamical RAM for      wfcinit/wfcrot:       0.74 MB

     Estimated static dynamical RAM per process >       1.10 GB

     Estimated max dynamical RAM per process >       1.10 GB
     EXX: ACE will be initialized later

     Initial potential from superposition of free atoms

     starting charge      15.9336, renormalised to      16.0000
     Starting wfcs are random

     total cpu time spent up to now is        0.5 secs

     per-process dynamical memory:    30.4 Mb

     Self-consistent Calculation

     iteration #  1     ecut=    80.00 Ry     beta= 0.70
     Davidson diagonalization with overlap

---- Real-time Memory Report at c_bands before calling an iterative solver
            82 MiB given to the printing process from OS
            29 MiB allocation reported by mallinfo(arena+hblkhd)
         14491 MiB available memory on the node where the printing process lives
------------------
     ethr =  1.00E-02,  avg # of iterations =  7.6

     total cpu time spent up to now is        1.0 secs

     total energy              =    -140.69811897 Ry
     estimated scf accuracy    <       0.36425051 Ry

     iteration #  2     ecut=    80.00 Ry     beta= 0.70
     Davidson diagonalization with overlap

---- Real-time Memory Report at c_bands before calling an iterative solver
            87 MiB given to the printing process from OS
            32 MiB allocation reported by mallinfo(arena+hblkhd)
         14487 MiB available memory on the node where the printing process lives
------------------
     ethr =  2.28E-03,  avg # of iterations =  2.2

     total cpu time spent up to now is        1.1 secs

     total energy              =    -140.79364885 Ry
     estimated scf accuracy    <       0.29364163 Ry

     iteration #  3     ecut=    80.00 Ry     beta= 0.70
     Davidson diagonalization with overlap

---- Real-time Memory Report at c_bands before calling an iterative solver
            87 MiB given to the printing process from OS
            33 MiB allocation reported by mallinfo(arena+hblkhd)
         14486 MiB available memory on the node where the printing process lives
------------------
     ethr =  1.84E-03,  avg # of iterations =  1.8

     total cpu time spent up to now is        1.3 secs

     total energy              =    -140.85155647 Ry
     estimated scf accuracy    <       0.00149095 Ry

     iteration #  4     ecut=    80.00 Ry     beta= 0.70
     Davidson diagonalization with overlap

---- Real-time Memory Report at c_bands before calling an iterative solver
            88 MiB given to the printing process from OS
            33 MiB allocation reported by mallinfo(arena+hblkhd)
         14486 MiB available memory on the node where the printing process lives
------------------
     ethr =  9.32E-06,  avg # of iterations =  5.3

     total cpu time spent up to now is        1.6 secs

     total energy              =    -140.85188476 Ry
     estimated scf accuracy    <       0.00001516 Ry

     iteration #  5     ecut=    80.00 Ry     beta= 0.70
     Davidson diagonalization with overlap

---- Real-time Memory Report at c_bands before calling an iterative solver
            88 MiB given to the printing process from OS
            34 MiB allocation reported by mallinfo(arena+hblkhd)
         14485 MiB available memory on the node where the printing process lives
------------------
     ethr =  9.48E-08,  avg # of iterations =  2.1

     total cpu time spent up to now is        1.7 secs

     total energy              =    -140.85188766 Ry
     estimated scf accuracy    <       0.00000127 Ry

     iteration #  6     ecut=    80.00 Ry     beta= 0.70
     Davidson diagonalization with overlap

---- Real-time Memory Report at c_bands before calling an iterative solver
            88 MiB given to the printing process from OS
            34 MiB allocation reported by mallinfo(arena+hblkhd)
         14485 MiB available memory on the node where the printing process lives
------------------
     ethr =  7.95E-09,  avg # of iterations =  2.0

     total cpu time spent up to now is        1.9 secs

     total energy              =    -140.85188790 Ry
     estimated scf accuracy    <       0.00000011 Ry

     iteration #  7     ecut=    80.00 Ry     beta= 0.70
     Davidson diagonalization with overlap

---- Real-time Memory Report at c_bands before calling an iterative solver
            89 MiB given to the printing process from OS
            34 MiB allocation reported by mallinfo(arena+hblkhd)
         14484 MiB available memory on the node where the printing process lives
------------------
     ethr =  7.13E-10,  avg # of iterations =  1.1

     total cpu time spent up to now is        2.1 secs

     End of self-consistent calculation

          k = 0.0000 0.0000 0.0000 (  1459 PWs)   bands (ev):

   -63.2993 -30.0692 -30.0692 -30.0692  -8.2978   9.0035   9.0035   9.0035
    13.9554  25.0128  25.0128  25.0128  28.8647  30.8680  30.8680  33.7231

     occupation numbers 
     1.0000   1.0000   1.0000   1.0000   1.0000   1.0000   1.0000   1.0000
     0.0000   0.0000   0.0000   0.0000   0.0000   0.0000   0.0000   0.0000

          k =-0.1667 0.1667-0.1667 (  1489 PWs)   bands (ev):

   -63.2972 -30.0924 -30.0715 -30.0715  -7.9974   7.4922   8.8264   8.8264
    15.3658  22.6328  25.5973  25.5973  29.5624  29.5624  31.6020  34.5966

     occupation numbers 
     1.0000   1.0000   1.0000   1.0000   1.0000   1.0000   1.0000   1.0000
     0.0000   0.0000   0.0000   0.0000   0.0000   0.0000   0.0000   0.0000

          k =-0.3333 0.3333-0.3333 (  1501 PWs)   bands (ev):

   -63.2925 -30.1382 -30.0762 -30.0762  -7.3222   5.2988   8.4950   8.4950
    16.8523  21.5079  25.8364  25.8364  30.2315  30.2315  30.8199  38.6176

     occupation numbers 
     1.0000   1.0000   1.0000   1.0000   1.0000   1.0000   1.0000   1.0000
     0.0000   0.0000   0.0000   0.0000   0.0000   0.0000   0.0000   0.0000

          k = 0.5000-0.5000 0.5000 (  1502 PWs)   bands (ev):

   -63.2902 -30.1610 -30.0785 -30.0785  -6.9337   4.3303   8.3393   8.3393
    17.0524  21.8309  25.5764  25.5764  30.2731  31.8470  31.8470  37.9670

     occupation numbers 
     1.0000   1.0000   1.0000   1.0000   1.0000   1.0000   1.0000   1.0000
     0.0000   0.0000   0.0000   0.0000   0.0000   0.0000   0.0000   0.0000

          k = 0.0000 0.3333 0.0000 (  1491 PWs)   bands (ev):

   -63.2964 -30.0906 -30.0768 -30.0768  -7.9075   7.4146   8.6118   8.6118
    15.8500  21.8555  25.9027  25.9027  26.9872  31.7303  33.9175  35.0805

     occupation numbers 
     1.0000   1.0000   1.0000   1.0000   1.0000   1.0000   1.0000   1.0000
     0.0000   0.0000   0.0000   0.0000   0.0000   0.0000   0.0000   0.0000

          k =-0.1667 0.5000-0.1667 (  1484 PWs)   bands (ev):

   -63.2924 -30.1236 -30.0829 -30.0825  -7.3766   5.8957   8.1279   8.2789
    17.5098  20.6772  24.5817  26.4582  27.6328  32.1422  34.2728  38.0717

     occupation numbers 
     1.0000   1.0000   1.0000   1.0000   1.0000   1.0000   1.0000   1.0000
     0.0000   0.0000   0.0000   0.0000   0.0000   0.0000   0.0000   0.0000

          k = 0.6667-0.3333 0.6667 (  1493 PWs)   bands (ev):

   -63.2893 -30.1501 -30.0911 -30.0838  -6.8847   4.7887   7.5472   8.1514
    18.1564  21.4031  23.5127  26.2670  29.2801  32.7309  33.7420  38.5573

     occupation numbers 
     1.0000   1.0000   1.0000   1.0000   1.0000   1.0000   1.0000   1.0000
     0.0000   0.0000   0.0000   0.0000   0.0000   0.0000   0.0000   0.0000

          k = 0.5000-0.1667 0.5000 (  1499 PWs)   bands (ev):

   -63.2902 -30.1433 -30.0946 -30.0785  -7.0005   5.0692   7.4350   8.3399
    18.1542  21.2907  23.7488  26.3783  29.9881  30.6102  33.6644  39.0540

     occupation numbers 
     1.0000   1.0000   1.0000   1.0000   1.0000   1.0000   1.0000   1.0000
     0.0000   0.0000   0.0000   0.0000   0.0000   0.0000   0.0000   0.0000

          k = 0.3333 0.0000 0.3333 (  1492 PWs)   bands (ev):

   -63.2940 -30.1140 -30.0854 -30.0724  -7.5781   6.3625   8.0557   8.6803
    16.9002  21.3592  25.0051  26.8938  27.5026  30.4765  33.6671  36.1993

     occupation numbers 
     1.0000   1.0000   1.0000   1.0000   1.0000   1.0000   1.0000   1.0000
     0.0000   0.0000   0.0000   0.0000   0.0000   0.0000   0.0000   0.0000

          k = 0.0000 0.6667 0.0000 (  1479 PWs)   bands (ev):

   -63.2900 -30.1294 -30.0920 -30.0920  -7.1100   5.5382   7.9378   7.9378
    18.5305  19.1390  23.1326  27.5117  27.5117  34.1479  36.4868  38.8246

     occupation numbers 
     1.0000   1.0000   1.0000   1.0000   1.0000   1.0000   1.0000   1.0000
     0.0000   0.0000   0.0000   0.0000   0.0000   0.0000   0.0000   0.0000

          k = 0.8333-0.1667 0.8333 (  1501 PWs)   bands (ev):

   -63.2878 -30.1397 -30.1051 -30.0944  -6.7714   5.1885   7.0867   7.8039
    18.9228  20.0318  22.1696  27.6151  27.7931  35.3040  36.2075  38.4165

     occupation numbers 
     1.0000   1.0000   1.0000   1.0000   1.0000   1.0000   1.0000   1.0000
     0.0000   0.0000   0.0000   0.0000   0.0000   0.0000   0.0000   0.0000

          k = 0.6667-0.0000 0.6667 (  1516 PWs)   bands (ev):

   -63.2880 -30.1289 -30.1242 -30.0877  -6.7168   5.7459   5.9088   7.9915
    19.4626  21.3773  21.7986  27.0819  28.1529  32.4996  36.9957  37.6158

     occupation numbers 
     1.0000   1.0000   1.0000   1.0000   1.0000   1.0000   1.0000   1.0000
     0.0000   0.0000   0.0000   0.0000   0.0000   0.0000   0.0000   0.0000

          k = 0.0000-1.0000 0.0000 (  1524 PWs)   bands (ev):

   -63.2873 -30.1469 -30.0997 -30.0997  -6.7066   4.8838   7.6424   7.6424
    18.2137  19.2502  22.2960  28.2902  28.2902  34.8488  36.3618  40.2602

     occupation numbers 
     1.0000   1.0000   1.0000   1.0000   1.0000   1.0000   1.0000   1.0000
     0.0000   0.0000   0.0000   0.0000   0.0000   0.0000   0.0000   0.0000

          k = 0.6667-0.3333 1.0000 (  1492 PWs)   bands (ev):

   -63.2893 -30.1343 -30.1027 -30.0866  -6.9471   5.4317   7.1338   7.9745
    19.2192  20.2059  22.8284  26.4916  28.7484  32.2612  37.3061  37.7720

     occupation numbers 
     1.0000   1.0000   1.0000   1.0000   1.0000   1.0000   1.0000   1.0000
     0.0000   0.0000   0.0000   0.0000   0.0000   0.0000   0.0000   0.0000

          k = 0.5000-0.1667 0.8333 (  1498 PWs)   bands (ev):

   -63.2878 -30.1369 -30.1120 -30.0918  -6.7167   5.3790   6.5114   7.7224
    19.7325  21.1228  22.0146  25.7990  30.1091  31.3434  37.2431  37.8621

     occupation numbers 
     1.0000   1.0000   1.0000   1.0000   1.0000   1.0000   1.0000   1.0000
     0.0000   0.0000   0.0000   0.0000   0.0000   0.0000   0.0000   0.0000

          k =-0.3333-1.0000 0.0000 (  1510 PWs)   bands (ev):

   -63.2871 -30.1350 -30.1114 -30.1014  -6.6564   5.4120   6.7398   7.3175
    19.6753  20.7022  21.6554  25.8159  29.5050  34.0010  35.7242  37.8609

     occupation numbers 
     1.0000   1.0000   1.0000   1.0000   1.0000   1.0000   1.0000   1.0000
     0.0000   0.0000   0.0000   0.0000   0.0000   0.0000   0.0000   0.0000

     highest occupied, lowest unoccupied level (ev):     9.0035   13.9554

!    total energy              =    -140.85188791 Ry
     estimated scf accuracy    <          1.9E-09 Ry

     convergence has been achieved in   7 iterations

     Using ACE for calculation of exact exchange

     EXX grid:    12039 G-vectors     FFT dimensions: (  32,  32,  32)
     ACE projected onto    16 (nbndproj) and applied to    16 (nbnd) bands

     EXX: now go back to refine exchange calculation

     total cpu time spent up to now is       17.6 secs

     per-process dynamical memory:  1634.5 Mb

     Self-consistent Calculation

     iteration #  1     ecut=    80.00 Ry     beta= 0.70
     Davidson diagonalization with overlap

---- Real-time Memory Report at c_bands before calling an iterative solver
          1671 MiB given to the printing process from OS
          1596 MiB allocation reported by mallinfo(arena+hblkhd)
         12920 MiB available memory on the node where the printing process lives
------------------
     ethr =  7.13E-10,  avg # of iterations =  6.1

     total cpu time spent up to now is       18.0 secs

     total energy              =    -140.89639394 Ry
     estimated scf accuracy    <       0.00055474 Ry

     iteration #  2     ecut=    80.00 Ry     beta= 0.70
     Davidson diagonalization with overlap

---- Real-time Memory Report at c_bands before calling an iterative solver
          1671 MiB given to the printing process from OS
          1597 MiB allocation reported by mallinfo(arena+hblkhd)
         12918 MiB available memory on the node where the printing process lives
------------------
     ethr =  3.47E-06,  avg # of iterations =  1.8

     total cpu time spent up to now is       18.2 secs

     total energy              =    -140.89644317 Ry
     estimated scf accuracy    <       0.00013358 Ry

     iteration #  3     ecut=    80.00 Ry     beta= 0.70
     Davidson diagonalization with overlap

---- Real-time Memory Report at c_bands before calling an iterative solver
          1671 MiB given to the printing process from OS
          1597 MiB allocation reported by mallinfo(arena+hblkhd)
         12918 MiB available memory on the node where the printing process lives
------------------
     ethr =  8.35E-07,  avg # of iterations =  2.0

     total cpu time spent up to now is       18.4 secs

     total energy              =    -140.89647643 Ry
     estimated scf accuracy    <       0.00001702 Ry

     iteration #  4     ecut=    80.00 Ry     beta= 0.70
     Davidson diagonalization with overlap

---- Real-time Memory Report at c_bands before calling an iterative solver
          1671 MiB given to the printing process from OS
          1598 MiB allocation reported by mallinfo(arena+hblkhd)
         12917 MiB available memory on the node where the printing process lives
------------------
     ethr =  1.06E-07,  avg # of iterations =  1.4

     total cpu time spent up to now is       18.6 secs

     total energy              =    -140.89647917 Ry
     estimated scf accuracy    <       0.00000001 Ry

     iteration #  5     ecut=    80.00 Ry     beta= 0.70
     Davidson diagonalization with overlap

---- Real-time Memory Report at c_bands before calling an iterative solver
          1671 MiB given to the printing process from OS
          1598 MiB allocation reported by mallinfo(arena+hblkhd)
         12917 MiB available memory on the node where the printing process lives
------------------
     ethr =  8.87E-11,  avg # of iterations =  2.2

     total cpu time spent up to now is       18.8 secs

     End of self-consistent calculation

          k = 0.0000 0.0000 0.0000 (  1459 PWs)   bands (ev):

   -70.5875 -34.0039 -34.0039 -34.0039 -12.4492   6.9525   6.9525   6.9525
    14.9885  26.3658  26.3658  26.3658  30.1762  32.4668  32.4668  35.8669

     occupation numbers 
     1.0000   1.0000   1.0000   1.0000   1.0000   1.0000   1.0000   1.0000
     0.0000   0.0000   0.0000   0.0000   0.0000   0.0000   0.0000   0.0000

          k =-0.1667 0.1667-0.1667 (  1489 PWs)   bands (ev):

   -70.5877 -34.0304 -34.0076 -34.0076 -12.1144   5.4135   6.7711   6.7711
    16.4547  23.9312  27.0052  27.0052  31.2316  31.2316  33.2930  36.3409

     occupation numbers 
     1.0000   1.0000   1.0000   1.0000   1.0000   1.0000   1.0000   1.0000
     0.0000   0.0000   0.0000   0.0000   0.0000   0.0000   0.0000   0.0000

          k =-0.3333 0.3333-0.3333 (  1501 PWs)   bands (ev):

   -70.5807 -34.0825 -34.0103 -34.0103 -11.3979   2.9099   6.3802   6.3802
    18.0418  23.0260  27.3867  27.3867  31.9415  31.9415  32.5558  40.4342

     occupation numbers 
     1.0000   1.0000   1.0000   1.0000   1.0000   1.0000   1.0000   1.0000
     0.0000   0.0000   0.0000   0.0000   0.0000   0.0000   0.0000   0.0000

          k = 0.5000-0.5000 0.5000 (  1502 PWs)   bands (ev):

   -70.5807 -34.1083 -34.0140 -34.0140 -10.9766   1.7989   6.2050   6.2050
    18.1929  23.6360  27.1452  27.1452  31.9162  33.6897  33.6897  39.8441

     occupation numbers 
     1.0000   1.0000   1.0000   1.0000   1.0000   1.0000   1.0000   1.0000
     0.0000   0.0000   0.0000   0.0000   0.0000   0.0000   0.0000   0.0000

          k = 0.0000 0.3333 0.0000 (  1491 PWs)   bands (ev):

   -70.5876 -34.0296 -34.0134 -34.0134 -12.0148   5.3284   6.5555   6.5555
    16.9676  23.0462  27.4057  27.4063  28.6358  33.3543  35.3693  37.1390

     occupation numbers 
     1.0000   1.0000   1.0000   1.0000   1.0000   1.0000   1.0000   1.0000
     0.0000   0.0000   0.0000   0.0000   0.0000   0.0000   0.0000   0.0000

          k =-0.1667 0.5000-0.1667 (  1484 PWs)   bands (ev):

   -70.5828 -34.0669 -34.0201 -34.0178 -11.4473   3.5843   6.0639   6.1642
    18.7651  21.9154  26.1383  28.1109  29.3315  33.8652  36.0821  40.3394

     occupation numbers 
     1.0000   1.0000   1.0000   1.0000   1.0000   1.0000   1.0000   1.0000
     0.0000   0.0000   0.0000   0.0000   0.0000   0.0000   0.0000   0.0000

          k = 0.6667-0.3333 0.6667 (  1493 PWs)   bands (ev):

   -70.5805 -34.0970 -34.0285 -34.0199 -10.9221   2.3186   5.4110   6.0170
    19.3635  23.0400  25.0087  27.9371  31.0410  34.5525  35.4941  40.6118

     occupation numbers 
     1.0000   1.0000   1.0000   1.0000   1.0000   1.0000   1.0000   1.0000
     0.0000   0.0000   0.0000   0.0000   0.0000   0.0000   0.0000   0.0000

          k = 0.5000-0.1667 0.5000 (  1499 PWs)   bands (ev):

   -70.5806 -34.0891 -34.0317 -34.0141 -11.0473   2.6401   5.2909   6.2238
    19.4084  22.8131  25.3043  28.0239  31.6015  32.3713  35.5162  41.0761

     occupation numbers 
     1.0000   1.0000   1.0000   1.0000   1.0000   1.0000   1.0000   1.0000
     0.0000   0.0000   0.0000   0.0000   0.0000   0.0000   0.0000   0.0000

          k = 0.3333 0.0000 0.3333 (  1492 PWs)   bands (ev):

   -70.5852 -34.0560 -34.0234 -34.0075 -11.6589   4.1208   5.9897   6.6217
    18.1101  22.6233  26.5996  28.2982  29.1964  32.1537  35.5760  38.0841

     occupation numbers 
     1.0000   1.0000   1.0000   1.0000   1.0000   1.0000   1.0000   1.0000
     0.0000   0.0000   0.0000   0.0000   0.0000   0.0000   0.0000   0.0000

          k = 0.0000 0.6667 0.0000 (  1479 PWs)   bands (ev):

   -70.5781 -34.0706 -34.0289 -34.0289 -11.1783   3.1682   5.7719   5.7719
    19.8995  20.2175  24.7269  29.3934  29.3936  35.8717  38.6531  40.7108

     occupation numbers 
     1.0000   1.0000   1.0000   1.0000   1.0000   1.0000   1.0000   1.0000
     0.0000   0.0000   0.0000   0.0000   0.0000   0.0000   0.0000   0.0000

          k = 0.8333-0.1667 0.8333 (  1501 PWs)   bands (ev):

   -70.5782 -34.0831 -34.0446 -34.0328 -10.8113   2.7610   4.8860   5.6188
    20.0585  21.4325  23.7920  29.5452  29.7104  37.1190  38.2922  40.2453

     occupation numbers 
     1.0000   1.0000   1.0000   1.0000   1.0000   1.0000   1.0000   1.0000
     0.0000   0.0000   0.0000   0.0000   0.0000   0.0000   0.0000   0.0000

          k = 0.6667-0.0000 0.6667 (  1516 PWs)   bands (ev):

   -70.5761 -34.0708 -34.0647 -34.0229 -10.7622   3.3996   3.5760   5.8236
    20.7507  22.9098  23.3637  28.9277  29.8257  34.0894  38.9664  39.7432

     occupation numbers 
     1.0000   1.0000   1.0000   1.0000   1.0000   1.0000   1.0000   1.0000
     0.0000   0.0000   0.0000   0.0000   0.0000   0.0000   0.0000   0.0000

          k = 0.0000-1.0000 0.0000 (  1524 PWs)   bands (ev):

   -70.5783 -34.0924 -34.0388 -34.0388 -10.7438   2.4068   5.4406   5.4406
    19.2261  20.5405  24.1295  30.3727  30.3727  36.8293  38.1945  42.0314

     occupation numbers 
     1.0000   1.0000   1.0000   1.0000   1.0000   1.0000   1.0000   1.0000
     0.0000   0.0000   0.0000   0.0000   0.0000   0.0000   0.0000   0.0000

          k = 0.6667-0.3333 1.0000 (  1492 PWs)   bands (ev):

   -70.5804 -34.0782 -34.0420 -34.0237 -10.9889   3.0460   4.9429   5.8722
    20.6378  21.4299  24.3308  28.3110  30.4928  34.0258  39.1822  39.9057

     occupation numbers 
     1.0000   1.0000   1.0000   1.0000   1.0000   1.0000   1.0000   1.0000
     0.0000   0.0000   0.0000   0.0000   0.0000   0.0000   0.0000   0.0000

          k = 0.5000-0.1667 0.8333 (  1498 PWs)   bands (ev):

   -70.5782 -34.0812 -34.0525 -34.0282 -10.7502   2.9835   4.2492   5.5884
    21.0530  22.6304  23.5059  27.5419  31.7979  33.2038  39.2902  39.7814

     occupation numbers 
     1.0000   1.0000   1.0000   1.0000   1.0000   1.0000   1.0000   1.0000
     0.0000   0.0000   0.0000   0.0000   0.0000   0.0000   0.0000   0.0000

          k =-0.3333-1.0000 0.0000 (  1510 PWs)   bands (ev):

   -70.5782 -34.0783 -34.0523 -34.0405 -10.6859   3.0096   4.5044   5.1325
    20.8705  22.1083  23.2819  27.6024  31.4931  35.7890  37.6856  40.0034

     occupation numbers 
     1.0000   1.0000   1.0000   1.0000   1.0000   1.0000   1.0000   1.0000
     0.0000   0.0000   0.0000   0.0000   0.0000   0.0000   0.0000   0.0000

     highest occupied, lowest unoccupied level (ev):     6.9525   14.9885

!    total energy              =    -140.89647918 Ry
     estimated scf accuracy    <          9.2E-10 Ry

     convergence has been achieved in   5 iterations

     Using ACE for calculation of exact exchange
     ACE projected onto    16 (nbndproj) and applied to    16 (nbnd) bands

     total energy              =    -140.89689544 Ry
     Harris-Foulkes estimate   =    -140.89689544 Ry
     est. exchange err (dexx)  =       0.00041626 Ry
     - averaged Fock potential =      12.44517014 Ry
     + Fock energy (ACE)       =      -6.22874401 Ry

     EXX: now go back to refine exchange calculation

     total cpu time spent up to now is       34.1 secs

     per-process dynamical memory:  1632.2 Mb

     Self-consistent Calculation

     iteration #  1     ecut=    80.00 Ry     beta= 0.70
     Davidson diagonalization with overlap

---- Real-time Memory Report at c_bands before calling an iterative solver
          1671 MiB given to the printing process from OS
          1593 MiB allocation reported by mallinfo(arena+hblkhd)
         12922 MiB available memory on the node where the printing process lives
------------------
     ethr =  8.87E-11,  avg # of iterations =  4.8

     total cpu time spent up to now is       34.4 secs

     total energy              =    -140.89694405 Ry
     estimated scf accuracy    <       0.00001511 Ry

     iteration #  2     ecut=    80.00 Ry     beta= 0.70
     Davidson diagonalization with overlap

---- Real-time Memory Report at c_bands before calling an iterative solver
          1671 MiB given to the printing process from OS
          1597 MiB allocation reported by mallinfo(arena+hblkhd)
         12918 MiB available memory on the node where the printing process lives
------------------
     ethr =  9.44E-08,  avg # of iterations =  2.0

     total cpu time spent up to now is       34.6 secs

     total energy              =    -140.89694677 Ry
     estimated scf accuracy    <       0.00000562 Ry

     iteration #  3     ecut=    80.00 Ry     beta= 0.70
     Davidson diagonalization with overlap

---- Real-time Memory Report at c_bands before calling an iterative solver
          1671 MiB given to the printing process from OS
          1597 MiB allocation reported by mallinfo(arena+hblkhd)
         12918 MiB available memory on the node where the printing process lives
------------------
     ethr =  3.51E-08,  avg # of iterations =  1.9

     total cpu time spent up to now is       34.8 secs

     total energy              =    -140.89694811 Ry
     estimated scf accuracy    <       0.00000021 Ry

     iteration #  4     ecut=    80.00 Ry     beta= 0.70
     Davidson diagonalization with overlap

---- Real-time Memory Report at c_bands before calling an iterative solver
          1671 MiB given to the printing process from OS
          1598 MiB allocation reported by mallinfo(arena+hblkhd)
         12917 MiB available memory on the node where the printing process lives
------------------
     ethr =  1.30E-09,  avg # of iterations =  1.6

     total cpu time spent up to now is       35.0 secs

     End of self-consistent calculation

          k = 0.0000 0.0000 0.0000 (  1459 PWs)   bands (ev):

   -70.5906 -34.0180 -34.0180 -34.0180 -12.4455   6.9410   6.9410   6.9410
    15.0422  26.3787  26.3787  26.3787  30.1971  32.4700  32.4700  35.8773

     occupation numbers 
     1.0000   1.0000   1.0000   1.0000   1.0000   1.0000   1.0000   1.0000
     0.0000   0.0000   0.0000   0.0000   0.0000   0.0000   0.0000   0.0000

          k =-0.1667 0.1667-0.1667 (  1489 PWs)   bands (ev):

   -70.5907 -34.0444 -34.0216 -34.0216 -12.1112   5.4105   6.7601   6.7601
    16.5006  23.9521  27.0179  27.0179  31.2378  31.2378  33.3088  36.3527

     occupation numbers 
     1.0000   1.0000   1.0000   1.0000   1.0000   1.0000   1.0000   1.0000
     0.0000   0.0000   0.0000   0.0000   0.0000   0.0000   0.0000   0.0000

          k =-0.3333 0.3333-0.3333 (  1501 PWs)   bands (ev):

   -70.5838 -34.0962 -34.0244 -34.0244 -11.3996   2.9217   6.3692   6.3692
    18.0777  23.0501  27.3985  27.3985  31.9527  31.9527  32.5726  40.4454

     occupation numbers 
     1.0000   1.0000   1.0000   1.0000   1.0000   1.0000   1.0000   1.0000
     0.0000   0.0000   0.0000   0.0000   0.0000   0.0000   0.0000   0.0000

          k = 0.5000-0.5000 0.5000 (  1502 PWs)   bands (ev):

   -70.5837 -34.1218 -34.0279 -34.0279 -10.9781   1.8175   6.1957   6.1957
    18.2302  23.6564  27.1574  27.1574  31.9345  33.7039  33.7039  39.8513

     occupation numbers 
     1.0000   1.0000   1.0000   1.0000   1.0000   1.0000   1.0000   1.0000
     0.0000   0.0000   0.0000   0.0000   0.0000   0.0000   0.0000   0.0000

          k = 0.0000 0.3333 0.0000 (  1491 PWs)   bands (ev):

   -70.5906 -34.0435 -34.0274 -34.0274 -12.0117   5.3271   6.5447   6.5447
    17.0112  23.0667  27.4204  27.4204  28.6467  33.3568  35.3839  37.1482

     occupation numbers 
     1.0000   1.0000   1.0000   1.0000   1.0000   1.0000   1.0000   1.0000
     0.0000   0.0000   0.0000   0.0000   0.0000   0.0000   0.0000   0.0000

          k =-0.1667 0.5000-0.1667 (  1484 PWs)   bands (ev):

   -70.5859 -34.0806 -34.0340 -34.0319 -11.4474   3.5932   6.0524   6.1546
    18.8003  21.9401  26.1552  28.1249  29.3453  33.8720  36.0936  40.3504

     occupation numbers 
     1.0000   1.0000   1.0000   1.0000   1.0000   1.0000   1.0000   1.0000
     0.0000   0.0000   0.0000   0.0000   0.0000   0.0000   0.0000   0.0000

          k = 0.6667-0.3333 0.6667 (  1493 PWs)   bands (ev):

   -70.5835 -34.1105 -34.0424 -34.0339 -10.9237   2.3340   5.4038   6.0082
    19.3965  23.0629  25.0282  27.9503  31.0549  34.5648  35.5067  40.6095

     occupation numbers 
     1.0000   1.0000   1.0000   1.0000   1.0000   1.0000   1.0000   1.0000
     0.0000   0.0000   0.0000   0.0000   0.0000   0.0000   0.0000   0.0000

          k = 0.5000-0.1667 0.5000 (  1499 PWs)   bands (ev):

   -70.5837 -34.1027 -34.0456 -34.0280 -11.0490   2.6538   5.2844   6.2130
    19.4411  22.8372  25.3231  28.0365  31.6124  32.3854  35.5281  41.0803

     occupation numbers 
     1.0000   1.0000   1.0000   1.0000   1.0000   1.0000   1.0000   1.0000
     0.0000   0.0000   0.0000   0.0000   0.0000   0.0000   0.0000   0.0000

          k = 0.3333 0.0000 0.3333 (  1492 PWs)   bands (ev):

   -70.5883 -34.0697 -34.0374 -34.0215 -11.6576   4.1272   5.9793   6.6097
    18.1486  22.6476  26.6153  28.3099  29.2068  32.1643  35.5879  38.0915

     occupation numbers 
     1.0000   1.0000   1.0000   1.0000   1.0000   1.0000   1.0000   1.0000
     0.0000   0.0000   0.0000   0.0000   0.0000   0.0000   0.0000   0.0000

          k = 0.0000 0.6667 0.0000 (  1479 PWs)   bands (ev):

   -70.5812 -34.0842 -34.0429 -34.0429 -11.1810   3.1779   5.7635   5.7636
    19.9292  20.2437  24.7485  29.4100  29.4100  35.8728  38.6639  40.7188

     occupation numbers 
     1.0000   1.0000   1.0000   1.0000   1.0000   1.0000   1.0000   1.0000
     0.0000   0.0000   0.0000   0.0000   0.0000   0.0000   0.0000   0.0000

          k = 0.8333-0.1667 0.8333 (  1501 PWs)   bands (ev):

   -70.5813 -34.0967 -34.0585 -34.0467 -10.8138   2.7726   4.8819   5.6122
    20.0864  21.4607  23.8146  29.5609  29.7263  37.1254  38.2999  40.2474

     occupation numbers 
     1.0000   1.0000   1.0000   1.0000   1.0000   1.0000   1.0000   1.0000
     0.0000   0.0000   0.0000   0.0000   0.0000   0.0000   0.0000   0.0000

          k = 0.6667-0.0000 0.6667 (  1516 PWs)   bands (ev):

   -70.5792 -34.0845 -34.0784 -34.0369 -10.7669   3.4057   3.5801   5.8142
    20.7771  22.9338  23.3889  28.9419  29.8401  34.0979  38.9762  39.7497

     occupation numbers 
     1.0000   1.0000   1.0000   1.0000   1.0000   1.0000   1.0000   1.0000
     0.0000   0.0000   0.0000   0.0000   0.0000   0.0000   0.0000   0.0000

          k = 0.0000-1.0000 0.0000 (  1524 PWs)   bands (ev):

   -70.5814 -34.1059 -34.0527 -34.0527 -10.7456   2.4203   5.4357   5.4357
    19.2548  20.5729  24.1494  30.3900  30.3900  36.8368  38.1922  42.0371

     occupation numbers 
     1.0000   1.0000   1.0000   1.0000   1.0000   1.0000   1.0000   1.0000
     0.0000   0.0000   0.0000   0.0000   0.0000   0.0000   0.0000   0.0000

          k = 0.6667-0.3333 1.0000 (  1492 PWs)   bands (ev):

   -70.5835 -34.0918 -34.0559 -34.0376 -10.9905   3.0572   4.9390   5.8618
    20.6674  21.4559  24.3532  28.3261  30.5063  34.0356  39.1915  39.9044

     occupation numbers 
     1.0000   1.0000   1.0000   1.0000   1.0000   1.0000   1.0000   1.0000
     0.0000   0.0000   0.0000   0.0000   0.0000   0.0000   0.0000   0.0000

          k = 0.5000-0.1667 0.8333 (  1498 PWs)   bands (ev):

   -70.5813 -34.0948 -34.0662 -34.0422 -10.7532   2.9931   4.2497   5.5793
    21.0809  22.6540  23.5310  27.5585  31.8087  33.2161  39.2937  39.7793

     occupation numbers 
     1.0000   1.0000   1.0000   1.0000   1.0000   1.0000   1.0000   1.0000
     0.0000   0.0000   0.0000   0.0000   0.0000   0.0000   0.0000   0.0000

          k =-0.3333-1.0000 0.0000 (  1510 PWs)   bands (ev):

   -70.5813 -34.0919 -34.0661 -34.0544 -10.6885   3.0190   4.5037   5.1268
    20.8968  22.1371  23.3051  27.6201  31.5079  35.7981  37.6885  40.0109

     occupation numbers 
     1.0000   1.0000   1.0000   1.0000   1.0000   1.0000   1.0000   1.0000
     0.0000   0.0000   0.0000   0.0000   0.0000   0.0000   0.0000   0.0000

     highest occupied, lowest unoccupied level (ev):     6.9410   15.0422

!    total energy              =    -140.89694814 Ry
     estimated scf accuracy    <          6.3E-10 Ry

     convergence has been achieved in   4 iterations

     Using ACE for calculation of exact exchange
     ACE projected onto    16 (nbndproj) and applied to    16 (nbnd) bands

     total energy              =    -140.89695537 Ry
     Harris-Foulkes estimate   =    -140.89695537 Ry
     est. exchange err (dexx)  =       0.00000724 Ry
     - averaged Fock potential =      12.45922111 Ry
     + Fock energy (ACE)       =      -6.23048434 Ry

     EXX: now go back to refine exchange calculation

     total cpu time spent up to now is       50.5 secs

     per-process dynamical memory:  1632.2 Mb

     Self-consistent Calculation

     iteration #  1     ecut=    80.00 Ry     beta= 0.70
     Davidson diagonalization with overlap

---- Real-time Memory Report at c_bands before calling an iterative solver
          1671 MiB given to the printing process from OS
          1593 MiB allocation reported by mallinfo(arena+hblkhd)
         12922 MiB available memory on the node where the printing process lives
------------------
     ethr =  1.30E-09,  avg # of iterations =  2.8

     total cpu time spent up to now is       50.7 secs

     total energy              =    -140.89695628 Ry
     estimated scf accuracy    <       0.00000040 Ry

     iteration #  2     ecut=    80.00 Ry     beta= 0.70
     Davidson diagonalization with overlap

---- Real-time Memory Report at c_bands before calling an iterative solver
          1671 MiB given to the printing process from OS
          1597 MiB allocation reported by mallinfo(arena+hblkhd)
         12918 MiB available memory on the node where the printing process lives
------------------
     ethr =  2.50E-09,  avg # of iterations =  2.0

     total cpu time spent up to now is       50.9 secs

     total energy              =    -140.89695637 Ry
     estimated scf accuracy    <       0.00000018 Ry

     iteration #  3     ecut=    80.00 Ry     beta= 0.70
     Davidson diagonalization with overlap

---- Real-time Memory Report at c_bands before calling an iterative solver
          1671 MiB given to the printing process from OS
          1597 MiB allocation reported by mallinfo(arena+hblkhd)
         12918 MiB available memory on the node where the printing process lives
------------------
     ethr =  1.10E-09,  avg # of iterations =  1.8

     total cpu time spent up to now is       51.1 secs

     End of self-consistent calculation

          k = 0.0000 0.0000 0.0000 (  1459 PWs)   bands (ev):

   -70.5913 -34.0196 -34.0196 -34.0196 -12.4439   6.9399   6.9399   6.9399
    15.0501  26.3805  26.3805  26.3805  30.2001  32.4703  32.4703  35.8787

     occupation numbers 
     1.0000   1.0000   1.0000   1.0000   1.0000   1.0000   1.0000   1.0000
     0.0000   0.0000   0.0000   0.0000   0.0000   0.0000   0.0000   0.0000

          k =-0.1667 0.1667-0.1667 (  1489 PWs)   bands (ev):

   -70.5914 -34.0461 -34.0233 -34.0233 -12.1098   5.4097   6.7588   6.7588
    16.5074  23.9551  27.0198  27.0198  31.2387  31.2387  33.3111  36.3544

     occupation numbers 
     1.0000   1.0000   1.0000   1.0000   1.0000   1.0000   1.0000   1.0000
     0.0000   0.0000   0.0000   0.0000   0.0000   0.0000   0.0000   0.0000

          k =-0.3333 0.3333-0.3333 (  1501 PWs)   bands (ev):

   -70.5845 -34.0977 -34.0260 -34.0260 -11.3987   2.9237   6.3681   6.3681
    18.0829  23.0535  27.4001  27.4001  31.9542  31.9542  32.5748  40.4472

     occupation numbers 
     1.0000   1.0000   1.0000   1.0000   1.0000   1.0000   1.0000   1.0000
     0.0000   0.0000   0.0000   0.0000   0.0000   0.0000   0.0000   0.0000

          k = 0.5000-0.5000 0.5000 (  1502 PWs)   bands (ev):

   -70.5844 -34.1234 -34.0295 -34.0295 -10.9772   1.8201   6.1948   6.1948
    18.2359  23.6587  27.1591  27.1591  31.9369  33.7061  33.7061  39.8527

     occupation numbers 
     1.0000   1.0000   1.0000   1.0000   1.0000   1.0000   1.0000   1.0000
     0.0000   0.0000   0.0000   0.0000   0.0000   0.0000   0.0000   0.0000

          k = 0.0000 0.3333 0.0000 (  1491 PWs)   bands (ev):

   -70.5913 -34.0450 -34.0291 -34.0291 -12.0103   5.3268   6.5432   6.5432
    17.0178  23.0697  27.4227  27.4227  28.6481  33.3572  35.3861  37.1495

     occupation numbers 
     1.0000   1.0000   1.0000   1.0000   1.0000   1.0000   1.0000   1.0000
     0.0000   0.0000   0.0000   0.0000   0.0000   0.0000   0.0000   0.0000

          k =-0.1667 0.5000-0.1667 (  1484 PWs)   bands (ev):

   -70.5865 -34.0821 -34.0356 -34.0335 -11.4464   3.5948   6.0502   6.1535
    18.8058  21.9438  26.1575  28.1270  29.3473  33.8729  36.0953  40.3519

     occupation numbers 
     1.0000   1.0000   1.0000   1.0000   1.0000   1.0000   1.0000   1.0000
     0.0000   0.0000   0.0000   0.0000   0.0000   0.0000   0.0000   0.0000

          k = 0.6667-0.3333 0.6667 (  1493 PWs)   bands (ev):

   -70.5842 -34.1121 -34.0440 -34.0355 -10.9229   2.3362   5.4026   6.0071
    19.4016  23.0660  25.0309  27.9522  31.0569  34.5667  35.5086  40.6090

     occupation numbers 
     1.0000   1.0000   1.0000   1.0000   1.0000   1.0000   1.0000   1.0000
     0.0000   0.0000   0.0000   0.0000   0.0000   0.0000   0.0000   0.0000

          k = 0.5000-0.1667 0.5000 (  1499 PWs)   bands (ev):

   -70.5843 -34.1042 -34.0472 -34.0296 -11.0481   2.6559   5.2832   6.2118
    19.4460  22.8408  25.3256  28.0384  31.6141  32.3875  35.5298  41.0808

     occupation numbers 
     1.0000   1.0000   1.0000   1.0000   1.0000   1.0000   1.0000   1.0000
     0.0000   0.0000   0.0000   0.0000   0.0000   0.0000   0.0000   0.0000

          k = 0.3333 0.0000 0.3333 (  1492 PWs)   bands (ev):

   -70.5889 -34.0713 -34.0390 -34.0231 -11.6565   4.1284   5.9772   6.6082
    18.1546  22.6513  26.6175  28.3117  29.2082  32.1658  35.5899  38.0926

     occupation numbers 
     1.0000   1.0000   1.0000   1.0000   1.0000   1.0000   1.0000   1.0000
     0.0000   0.0000   0.0000   0.0000   0.0000   0.0000   0.0000   0.0000

          k = 0.0000 0.6667 0.0000 (  1479 PWs)   bands (ev):

   -70.5819 -34.0858 -34.0445 -34.0445 -11.1803   3.1796   5.7627   5.7627
    19.9334  20.2475  24.7514  29.4123  29.4123  35.8729  38.6655  40.7200

     occupation numbers 
     1.0000   1.0000   1.0000   1.0000   1.0000   1.0000   1.0000   1.0000
     0.0000   0.0000   0.0000   0.0000   0.0000   0.0000   0.0000   0.0000

          k = 0.8333-0.1667 0.8333 (  1501 PWs)   bands (ev):

   -70.5819 -34.0982 -34.0601 -34.0483 -10.8130   2.7743   4.8812   5.6116
    20.0906  21.4646  23.8178  29.5632  29.7285  37.1264  38.3011  40.2478

     occupation numbers 
     1.0000   1.0000   1.0000   1.0000   1.0000   1.0000   1.0000   1.0000
     0.0000   0.0000   0.0000   0.0000   0.0000   0.0000   0.0000   0.0000

          k = 0.6667-0.0000 0.6667 (  1516 PWs)   bands (ev):

   -70.5799 -34.0861 -34.0800 -34.0385 -10.7663   3.4068   3.5809   5.8132
    20.7809  22.9372  23.3922  28.9438  29.8423  34.0991  38.9776  39.7506

     occupation numbers 
     1.0000   1.0000   1.0000   1.0000   1.0000   1.0000   1.0000   1.0000
     0.0000   0.0000   0.0000   0.0000   0.0000   0.0000   0.0000   0.0000

          k = 0.0000-1.0000 0.0000 (  1524 PWs)   bands (ev):

   -70.5820 -34.1074 -34.0543 -34.0543 -10.7447   2.4222   5.4352   5.4352
    19.2592  20.5773  24.1519  30.3925  30.3925  36.8381  38.1919  42.0380

     occupation numbers 
     1.0000   1.0000   1.0000   1.0000   1.0000   1.0000   1.0000   1.0000
     0.0000   0.0000   0.0000   0.0000   0.0000   0.0000   0.0000   0.0000

          k = 0.6667-0.3333 1.0000 (  1492 PWs)   bands (ev):

   -70.5841 -34.0934 -34.0575 -34.0392 -10.9896   3.0590   4.9385   5.8598
    20.6719  21.4599  24.3563  28.3283  30.5083  34.0370  39.1929  39.8992

     occupation numbers 
     1.0000   1.0000   1.0000   1.0000   1.0000   1.0000   1.0000   1.0000
     0.0000   0.0000   0.0000   0.0000   0.0000   0.0000   0.0000   0.0000

          k = 0.5000-0.1667 0.8333 (  1498 PWs)   bands (ev):

   -70.5819 -34.0963 -34.0678 -34.0438 -10.7525   2.9947   4.2500   5.5776
    21.0853  22.6574  23.5344  27.5610  31.8103  33.2178  39.2944  39.7778

     occupation numbers 
     1.0000   1.0000   1.0000   1.0000   1.0000   1.0000   1.0000   1.0000
     0.0000   0.0000   0.0000   0.0000   0.0000   0.0000   0.0000   0.0000

          k =-0.3333-1.0000 0.0000 (  1510 PWs)   bands (ev):

   -70.5819 -34.0934 -34.0677 -34.0560 -10.6877   3.0206   4.5033   5.1259
    20.9007  22.1411  23.3085  27.6228  31.5100  35.7995  37.6890  40.0119

     occupation numbers 
     1.0000   1.0000   1.0000   1.0000   1.0000   1.0000   1.0000   1.0000
     0.0000   0.0000   0.0000   0.0000   0.0000   0.0000   0.0000   0.0000

     highest occupied, lowest unoccupied level (ev):     6.9399   15.0501

!    total energy              =    -140.89695641 Ry
     estimated scf accuracy    <          3.4E-09 Ry

     convergence has been achieved in   3 iterations

     Using ACE for calculation of exact exchange
     ACE projected onto    16 (nbndproj) and applied to    16 (nbnd) bands

     total energy              =    -140.89695657 Ry
     Harris-Foulkes estimate   =    -140.89695657 Ry
     est. exchange err (dexx)  =       0.00000016 Ry
     - averaged Fock potential =      12.46123163 Ry
     + Fock energy (ACE)       =      -6.23074745 Ry

     EXX: now go back to refine exchange calculation

     total cpu time spent up to now is       66.6 secs

     per-process dynamical memory:  1632.2 Mb

     Self-consistent Calculation

     iteration #  1     ecut=    80.00 Ry     beta= 0.70
     Davidson diagonalization with overlap

---- Real-time Memory Report at c_bands before calling an iterative solver
          1671 MiB given to the printing process from OS
          1593 MiB allocation reported by mallinfo(arena+hblkhd)
         12921 MiB available memory on the node where the printing process lives
------------------
     ethr =  1.10E-09,  avg # of iterations =  2.1

     Threshold (ethr) on eigenvalues was too large:
     Diagonalizing with lowered threshold

     Davidson diagonalization with overlap

---- Real-time Memory Report at c_bands before calling an iterative solver
          1671 MiB given to the printing process from OS
          1596 MiB allocation reported by mallinfo(arena+hblkhd)
         12921 MiB available memory on the node where the printing process lives
------------------
     ethr =  3.07E-11,  avg # of iterations =  1.2

     total cpu time spent up to now is       66.9 secs

     End of self-consistent calculation

          k = 0.0000 0.0000 0.0000 (  1459 PWs)   bands (ev):

   -70.5914 -34.0199 -34.0199 -34.0199 -12.4436   6.9398   6.9398   6.9398
    15.0513  26.3807  26.3807  26.3807  30.2006  32.4704  32.4704  35.8788

     occupation numbers 
     1.0000   1.0000   1.0000   1.0000   1.0000   1.0000   1.0000   1.0000
     0.0000   0.0000   0.0000   0.0000   0.0000   0.0000   0.0000   0.0000

          k =-0.1667 0.1667-0.1667 (  1489 PWs)   bands (ev):

   -70.5915 -34.0463 -34.0235 -34.0235 -12.1096   5.4094   6.7587   6.7587
    16.5085  23.9556  27.0201  27.0201  31.2388  31.2388  33.3114  36.3547

     occupation numbers 
     1.0000   1.0000   1.0000   1.0000   1.0000   1.0000   1.0000   1.0000
     0.0000   0.0000   0.0000   0.0000   0.0000   0.0000   0.0000   0.0000

          k =-0.3333 0.3333-0.3333 (  1501 PWs)   bands (ev):

   -70.5846 -34.0979 -34.0262 -34.0262 -11.3985   2.9240   6.3679   6.3679
    18.0837  23.0540  27.4003  27.4003  31.9545  31.9545  32.5751  40.4475

     occupation numbers 
     1.0000   1.0000   1.0000   1.0000   1.0000   1.0000   1.0000   1.0000
     0.0000   0.0000   0.0000   0.0000   0.0000   0.0000   0.0000   0.0000

          k = 0.5000-0.5000 0.5000 (  1502 PWs)   bands (ev):

   -70.5845 -34.1236 -34.0298 -34.0298 -10.9770   1.8204   6.1947   6.1947
    18.2368  23.6588  27.1593  27.1593  31.9372  33.7065  33.7065  39.8529

     occupation numbers 
     1.0000   1.0000   1.0000   1.0000   1.0000   1.0000   1.0000   1.0000
     0.0000   0.0000   0.0000   0.0000   0.0000   0.0000   0.0000   0.0000

          k = 0.0000 0.3333 0.0000 (  1491 PWs)   bands (ev):

   -70.5914 -34.0453 -34.0293 -34.0293 -12.0101   5.3267   6.5430   6.5430
    17.0188  23.0702  27.4231  27.4231  28.6483  33.3572  35.3865  37.1497

     occupation numbers 
     1.0000   1.0000   1.0000   1.0000   1.0000   1.0000   1.0000   1.0000
     0.0000   0.0000   0.0000   0.0000   0.0000   0.0000   0.0000   0.0000

          k =-0.1667 0.5000-0.1667 (  1484 PWs)   bands (ev):

   -70.5866 -34.0823 -34.0358 -34.0337 -11.4462   3.5951   6.0496   6.1534
    18.8066  21.9444  26.1579  28.1274  29.3476  33.8730  36.0956  40.3521

     occupation numbers 
     1.0000   1.0000   1.0000   1.0000   1.0000   1.0000   1.0000   1.0000
     0.0000   0.0000   0.0000   0.0000   0.0000   0.0000   0.0000   0.0000

          k = 0.6667-0.3333 0.6667 (  1493 PWs)   bands (ev):

   -70.5843 -34.1123 -34.0442 -34.0357 -10.9227   2.3366   5.4024   6.0069
    19.4024  23.0665  25.0313  27.9526  31.0572  34.5670  35.5089  40.6089

     occupation numbers 
     1.0000   1.0000   1.0000   1.0000   1.0000   1.0000   1.0000   1.0000
     0.0000   0.0000   0.0000   0.0000   0.0000   0.0000   0.0000   0.0000

          k = 0.5000-0.1667 0.5000 (  1499 PWs)   bands (ev):

   -70.5844 -34.1044 -34.0474 -34.0298 -11.0479   2.6562   5.2828   6.2116
    19.4468  22.8414  25.3259  28.0387  31.6143  32.3878  35.5301  41.0808

     occupation numbers 
     1.0000   1.0000   1.0000   1.0000   1.0000   1.0000   1.0000   1.0000
     0.0000   0.0000   0.0000   0.0000   0.0000   0.0000   0.0000   0.0000

          k = 0.3333 0.0000 0.3333 (  1492 PWs)   bands (ev):

   -70.5890 -34.0715 -34.0392 -34.0234 -11.6562   4.1286   5.9768   6.6079
    18.1556  22.6519  26.6178  28.3120  29.2084  32.1660  35.5902  38.0927

     occupation numbers 
     1.0000   1.0000   1.0000   1.0000   1.0000   1.0000   1.0000   1.0000
     0.0000   0.0000   0.0000   0.0000   0.0000   0.0000   0.0000   0.0000

          k = 0.0000 0.6667 0.0000 (  1479 PWs)   bands (ev):

   -70.5820 -34.0860 -34.0447 -34.0447 -11.1800   3.1799   5.7626   5.7626
    19.9340  20.2480  24.7518  29.4127  29.4127  35.8729  38.6657  40.7201

     occupation numbers 
     1.0000   1.0000   1.0000   1.0000   1.0000   1.0000   1.0000   1.0000
     0.0000   0.0000   0.0000   0.0000   0.0000   0.0000   0.0000   0.0000

          k = 0.8333-0.1667 0.8333 (  1501 PWs)   bands (ev):

   -70.5820 -34.0985 -34.0603 -34.0485 -10.8128   2.7746   4.8810   5.6115
    20.0912  21.4651  23.8183  29.5636  29.7288  37.1266  38.3013  40.2478

     occupation numbers 
     1.0000   1.0000   1.0000   1.0000   1.0000   1.0000   1.0000   1.0000
     0.0000   0.0000   0.0000   0.0000   0.0000   0.0000   0.0000   0.0000

          k = 0.6667-0.0000 0.6667 (  1516 PWs)   bands (ev):

   -70.5800 -34.0863 -34.0802 -34.0387 -10.7661   3.4069   3.5811   5.8131
    20.7815  22.9377  23.3926  28.9440  29.8426  34.0993  38.9778  39.7507

     occupation numbers 
     1.0000   1.0000   1.0000   1.0000   1.0000   1.0000   1.0000   1.0000
     0.0000   0.0000   0.0000   0.0000   0.0000   0.0000   0.0000   0.0000

          k = 0.0000-1.0000 0.0000 (  1524 PWs)   bands (ev):

   -70.5821 -34.1076 -34.0545 -34.0545 -10.7445   2.4225   5.4351   5.4351
    19.2599  20.5780  24.1522  30.3929  30.3929  36.8383  38.1918  42.0382

     occupation numbers 
     1.0000   1.0000   1.0000   1.0000   1.0000   1.0000   1.0000   1.0000
     0.0000   0.0000   0.0000   0.0000   0.0000   0.0000   0.0000   0.0000

          k = 0.6667-0.3333 1.0000 (  1492 PWs)   bands (ev):

   -70.5842 -34.0936 -34.0577 -34.0394 -10.9894   3.0593   4.9384   5.8594
    20.6726  21.4605  24.3567  28.3286  30.5086  34.0372  39.1931  39.8954

     occupation numbers 
     1.0000   1.0000   1.0000   1.0000   1.0000   1.0000   1.0000   1.0000
     0.0000   0.0000   0.0000   0.0000   0.0000   0.0000   0.0000   0.0000

          k = 0.5000-0.1667 0.8333 (  1498 PWs)   bands (ev):

   -70.5820 -34.0965 -34.0680 -34.0440 -10.7523   2.9949   4.2501   5.5772
    21.0860  22.6579  23.5349  27.5613  31.8106  33.2181  39.2945  39.7773

     occupation numbers 
     1.0000   1.0000   1.0000   1.0000   1.0000   1.0000   1.0000   1.0000
     0.0000   0.0000   0.0000   0.0000   0.0000   0.0000   0.0000   0.0000

          k =-0.3333-1.0000 0.0000 (  1510 PWs)   bands (ev):

   -70.5820 -34.0936 -34.0679 -34.0562 -10.6876   3.0208   4.5031   5.1258
    20.9013  22.1417  23.3090  27.6232  31.5102  35.7998  37.6891  40.0120

     occupation numbers 
     1.0000   1.0000   1.0000   1.0000   1.0000   1.0000   1.0000   1.0000
     0.0000   0.0000   0.0000   0.0000   0.0000   0.0000   0.0000   0.0000

     highest occupied, lowest unoccupied level (ev):     6.9398   15.0513

!    total energy              =    -140.89695659 Ry
     estimated scf accuracy    <          4.9E-09 Ry

     convergence has been achieved in   1 iterations

     Using ACE for calculation of exact exchange
     ACE projected onto    16 (nbndproj) and applied to    16 (nbnd) bands

!!   total energy              =    -140.89695660 Ry
     Harris-Foulkes estimate   =    -140.89695660 Ry
     est. exchange err (dexx)  =          4.3E-09 Ry
     - averaged Fock potential =      12.46154041 Ry
     + Fock energy (ACE)       =      -6.23079297 Ry

     EXX self-consistency reached

     Writing all to output data dir ./out/mgo.save/ :
     XML data file, charge density, pseudopotentials, collected wavefunctions

     init_run     :      1.40s CPU      0.45s WALL (       1 calls)
     electrons    :     32.92s CPU      4.72s WALL (       5 calls)

     Called by init_run:
     aceinit0     :      0.00s CPU      0.00s WALL (       1 calls)
     wfcinit      :      1.00s CPU      0.21s WALL (       1 calls)
     wfcinit:wfcr :      0.88s CPU      0.20s WALL (      16 calls)
     potinit      :      0.06s CPU      0.02s WALL (       1 calls)
     hinit0       :      0.34s CPU      0.21s WALL (       1 calls)

     Called by electrons:
     c_bands      :     27.64s CPU      3.96s WALL (      21 calls)
     sum_band     :      4.76s CPU      0.68s WALL (      21 calls)
     v_of_rho     :      0.39s CPU      0.06s WALL (      22 calls)
     v_h          :      0.00s CPU      0.00s WALL (      22 calls)
     v_xc         :      0.39s CPU      0.06s WALL (      22 calls)
     mix_rho      :      0.01s CPU      0.01s WALL (      21 calls)

     Called by c_bands:
     init_us_2    :      0.76s CPU      0.12s WALL (     688 calls)
     cegterg      :     26.62s CPU      3.81s WALL (     336 calls)

     Called by sum_band:
     sum_band:wei :      0.00s CPU      0.00s WALL (      21 calls)
     sum_band:loo :      4.65s CPU      0.66s WALL (      21 calls)
     sum_band:buf :      0.06s CPU      0.01s WALL (     336 calls)
     sum_band:ini :      0.26s CPU      0.05s WALL (     336 calls)

     Called by *egterg:
     cdiaghg      :      1.13s CPU      0.18s WALL (    1147 calls)
     cegterg:over :      0.63s CPU      0.12s WALL (     891 calls)
     cegterg:upda :      0.32s CPU      0.06s WALL (     891 calls)
     cegterg:last :      0.64s CPU      0.09s WALL (     753 calls)
     h_psi        :     23.78s CPU      3.41s WALL (    1243 calls)
     g_psi        :      0.36s CPU      0.06s WALL (     891 calls)

     Called by h_psi:
     h_psi:calbec :      0.55s CPU      0.09s WALL (    1243 calls)
     vloc_psi     :     22.11s CPU      3.16s WALL (    1243 calls)
                                        0.00s GPU  (    1243 calls)
     add_vuspsi   :      0.30s CPU      0.04s WALL (    1243 calls)

     General routines
     calbec       :      1.21s CPU      0.19s WALL (    2373 calls)
     fft          :      0.33s CPU      0.15s WALL (     214 calls)
     ffts         :      0.00s CPU      0.00s WALL (      21 calls)
     fftw         :     20.13s CPU      2.86s WALL (   33848 calls)
     fftc         :    214.74s CPU     49.85s WALL ( 1105920 calls)
     fftcw        :      1.35s CPU      0.31s WALL (    3840 calls)

     Parallel routines

     EXX routines
     exx_grid     :      0.00s CPU      0.00s WALL (       1 calls)
     exxinit      :     10.10s CPU      2.36s WALL (       5 calls)
     vexx         :    322.28s CPU     74.85s WALL (      80 calls)
     matcalc      :      0.67s CPU      0.10s WALL (    1130 calls)
     aceupdate    :      0.05s CPU      0.01s WALL (      80 calls)
     vexxace      :      0.89s CPU      0.13s WALL (     906 calls)
     aceinit      :    322.43s CPU     74.89s WALL (      80 calls)

     PWSCF        :   6m 7.47s CPU   1m22.54s WALL


   This run was terminated on:  16:43:15  15Jun2026            

=------------------------------------------------------------------------------=
   JOB DONE.
=------------------------------------------------------------------------------=
