
     Program PWSCF v.7.5 starts on  2Jul2026 at  5: 9: 2 

     This program is part of the open-source Quantum ESPRESSO suite
     for quantum simulation of materials; please cite
         "P. Giannozzi et al., J. Phys.:Condens. Matter 21 395502 (2009);
         "P. Giannozzi et al., J. Phys.:Condens. Matter 29 465901 (2017);
         "P. Giannozzi et al., J. Chem. Phys. 152 154105 (2020);
          URL http://www.quantum-espresso.org", 
     in publications or presentations arising from this work. More details at
     http://www.quantum-espresso.org/quote

     Parallel version (MPI & OpenMP), running on      16 processor cores
     Number of MPI processes:                16
     Threads/MPI process:                     1

     MPI processes distributed on     1 nodes
     13359 MiB available memory on the printing compute node when the environment starts

     Reading input from caf2.dm.in

     Current dimensions of program PWSCF are:
     Max number of different atomic species (ntypx) = 10
     Max number of k-points (npk) =  40000
     Max angular momentum in pseudopotentials (lmaxx) =  4

     IMPORTANT: XC functional enforced from input :
     Exchange-correlation= HSE
                           (   1   4  12   4   0   0   0)
     EXX-fraction              =        0.25
     Any further DFT definition will be discarded
     Please, verify this is what you really want

     EXX Screening parameter changed:    1.6658000
     EXX fraction changed:   1.00
     DD-RSH-CAM (LMODELHF) semilocal: AEXX, BEXX =   0.4435  1.0000
     DD-RSH-CAM (LMODELHF) enabled
     AEXX =  0.4435   BEXX =  1.0000   mu(bohr^-1) =  1.6658

     R & G space division:  proc/nbgrp/npool/nimage =      16
     Subspace diagonalization in iterative solution of the eigenvalue problem:
     a serial algorithm will be used

     EXX: q-point mesh:     6    6    6
     EXX: setup a grid of 216 q-points centered on each k-point
     (k+q)-points:
   0.0000000   0.0000000   0.0000000         1    1
  -0.1666667   0.1666667  -0.1666667         2    1
  -0.3333333   0.3333333  -0.3333333         3    1
   0.5000000  -0.5000000   0.5000000         4    1
   0.3333333  -0.3333333   0.3333333         3   -1
   0.1666667  -0.1666667   0.1666667         2   -1
   0.1666667   0.1666667   0.1666667         2    3
   0.0000000   0.3333333   0.0000000         5    1
  -0.1666667   0.5000000  -0.1666667         6    1
   0.6666667  -0.3333333   0.6666667         7    1
   0.5000000  -0.1666667   0.5000000         8    1
   0.3333333   0.0000000   0.3333333         9    1
   0.3333333   0.3333333   0.3333333         3    3
   0.1666667   0.5000000   0.1666667         6    3
   0.0000000   0.6666667   0.0000000        10    1
   0.8333333  -0.1666667   0.8333333        11    1
   0.6666667   0.0000000   0.6666667        12    1
   0.5000000   0.1666667   0.5000000         8   -3
  -0.5000000  -0.5000000  -0.5000000         4    3
  -0.6666667  -0.3333333  -0.6666667         7    3
  -0.8333333  -0.1666667  -0.8333333        11    3
   0.0000000  -1.0000000   0.0000000        13    1
   0.8333333   0.1666667   0.8333333        11   -3
   0.6666667   0.3333333   0.6666667         7   -3
  -0.3333333  -0.3333333  -0.3333333         3   -3
  -0.5000000  -0.1666667  -0.5000000         8    3
  -0.6666667   0.0000000  -0.6666667        12   -1
  -0.8333333   0.1666667  -0.8333333        11   -1
   0.0000000  -0.6666667   0.0000000        10   -1
  -0.1666667  -0.5000000  -0.1666667         6   -3
  -0.1666667  -0.1666667  -0.1666667         2   -3
  -0.3333333   0.0000000  -0.3333333         9   -1
  -0.5000000   0.1666667  -0.5000000         8   -1
  -0.6666667   0.3333333  -0.6666667         7   -1
   0.1666667  -0.5000000   0.1666667         6   -1
   0.0000000  -0.3333333   0.0000000         5   -1
  -0.1666667  -0.1666667   0.1666667         2    4
  -0.3333333   0.0000000   0.0000000         5   -5
  -0.5000000   0.1666667  -0.1666667         6   -5
   0.3333333  -0.6666667   0.6666667         7   -5
   0.1666667  -0.5000000   0.5000000         8   -5
   0.0000000  -0.3333333   0.3333333         9   -5
   0.0000000   0.0000000   0.3333333         5   13
  -0.1666667   0.1666667   0.1666667         2   -2
  -0.3333333   0.3333333   0.0000000         9   13
  -0.5000000   0.5000000  -0.1666667         8   13
  -0.6666667   0.6666667  -0.3333333         7   13
   0.1666667  -0.1666667   0.5000000         6   13
   0.1666667   0.1666667   0.5000000         6  -16
   0.0000000   0.3333333   0.3333333         9   -6
  -0.1666667   0.5000000   0.1666667         6   -2
   0.6666667  -0.3333333   1.0000000        14    1
   0.5000000  -0.1666667   0.8333333        15    1
  -0.6666667   1.0000000  -0.3333333        14   13
  -0.6666667  -0.6666667  -0.3333333         7  -16
   0.1666667   0.5000000   0.5000000         8    7
  -1.0000000  -0.3333333  -0.6666667        14   -9
   0.8333333  -0.1666667  -0.8333333        11   -2
  -0.3333333  -1.0000000   0.0000000        16    1
   0.5000000   0.1666667   0.8333333        15   -3
  -0.5000000  -0.5000000  -0.1666667         8  -16
   0.3333333   0.6666667   0.6666667         7    7
  -0.8333333  -0.1666667  -0.5000000        15   -9
   0.0000000  -1.0000000   0.3333333        16   -9
   0.8333333   0.1666667  -0.8333333        11    4
   0.6666667   0.3333333   1.0000000        14   -3
  -0.3333333  -0.3333333   0.0000000         9   14
  -0.5000000  -0.1666667  -0.1666667         6    7
   0.3333333  -1.0000000   0.6666667        14   22
  -0.8333333   0.1666667  -0.5000000        15   10
  -1.0000000   0.3333333  -0.6666667        14   10
  -0.1666667  -0.5000000   0.1666667         6    4
  -0.3333333  -0.3333333   0.3333333         3    4
  -0.5000000  -0.1666667   0.1666667         6   -8
  -0.6666667   0.0000000   0.0000000        10   -5
   0.1666667  -0.8333333   0.8333333        11   -5
   0.0000000  -0.6666667   0.6666667        12   -5
  -0.1666667  -0.5000000   0.5000000         8    8
  -0.1666667  -0.1666667   0.5000000         6  -14
  -0.3333333   0.0000000   0.3333333         9    2
  -0.5000000   0.1666667   0.1666667         6    6
   0.3333333  -0.6666667   1.0000000        14   -5
   0.1666667  -0.5000000   0.8333333        15   -5
   1.0000000   0.6666667  -0.3333333        14   17
   0.0000000   0.0000000   0.6666667        10   13
  -0.1666667   0.1666667   0.5000000         6   15
  -0.3333333   0.3333333   0.3333333         3   -2
  -0.5000000   0.5000000   0.1666667         8  -15
  -0.6666667   0.6666667   0.0000000        12   13
  -0.8333333   0.8333333  -0.1666667        11   13
  -0.8333333  -0.8333333  -0.1666667        11  -16
  -1.0000000  -0.6666667  -0.3333333        14   18
  -0.1666667   0.5000000   0.5000000         8   -6
   0.6666667  -0.3333333  -0.6666667         7   -2
   0.5000000  -0.1666667  -0.8333333        15   -2
   0.3333333   0.0000000  -1.0000000        16   13
  -0.6666667  -0.6666667   0.0000000        12   14
   0.1666667   0.5000000   0.8333333        15    7
   0.0000000   0.6666667   0.6666667        12   -6
   0.8333333  -0.1666667  -0.5000000        15   12
   0.6666667   0.0000000  -0.6666667        12   -2
   0.5000000   0.1666667  -0.8333333        15    4
  -0.5000000  -0.5000000   0.1666667         8   14
   0.3333333   0.6666667   1.0000000        14    7
   0.1666667   0.8333333   0.8333333        11    7
  -1.0000000   0.0000000  -0.3333333        16   21
   0.8333333   0.1666667  -0.5000000        15  -11
   0.6666667   0.3333333  -0.6666667         7    4
   0.5000000   0.5000000  -0.5000000         4    4
   0.3333333   0.6666667  -0.6666667         7   -8
   0.1666667   0.8333333  -0.8333333        11   -8
  -1.0000000   0.0000000   0.0000000        13    5
  -0.1666667  -0.8333333   0.8333333        11    8
  -0.3333333  -0.6666667   0.6666667         7    8
   0.6666667   0.6666667  -0.3333333         7  -14
  -0.5000000  -0.1666667   0.5000000         8   -4
   0.3333333  -1.0000000  -0.6666667        14  -21
   0.1666667  -0.8333333  -0.8333333        11    6
   1.0000000   0.3333333   0.0000000        16   -5
  -0.1666667  -0.5000000   0.8333333        15    8
   0.8333333   0.8333333  -0.1666667        11  -14
   0.6666667   1.0000000  -0.3333333        14  -14
  -0.5000000   0.1666667   0.5000000         8    2
   0.3333333  -0.6666667  -0.6666667         7    6
   0.1666667  -0.5000000  -0.8333333        15    6
   0.0000000  -0.3333333  -1.0000000        16   17
   0.0000000   0.0000000  -1.0000000        13   13
   0.8333333  -0.8333333  -0.1666667        11   15
   0.6666667  -0.6666667  -0.3333333         7   15
  -0.5000000   0.5000000   0.5000000         4    2
  -0.6666667   0.6666667   0.3333333         7  -15
  -0.8333333   0.8333333   0.1666667        11  -15
  -0.8333333  -0.8333333   0.1666667        11   14
   0.0000000   0.3333333   1.0000000        16  -17
  -0.1666667   0.5000000   0.8333333        15   -6
  -0.3333333   0.6666667   0.6666667         7   -6
   0.5000000  -0.1666667  -0.5000000         8   -2
  -0.6666667  -1.0000000   0.3333333        14   14
  -0.6666667  -0.6666667   0.3333333         7   14
   0.1666667   0.5000000  -0.8333333        15   -8
  -1.0000000  -0.3333333   0.0000000        16    5
  -0.1666667   0.8333333   0.8333333        11   -6
  -0.3333333   1.0000000   0.6666667        14   21
   0.5000000   0.1666667  -0.5000000         8    4
   0.3333333   0.3333333  -0.3333333         3   -4
   0.1666667   0.5000000  -0.5000000         8   -8
   0.0000000   0.6666667  -0.6666667        12    5
  -0.1666667   0.8333333  -0.8333333        11    5
   0.6666667   0.0000000   0.0000000        10    5
   0.5000000   0.1666667  -0.1666667         6    8
   0.5000000   0.5000000  -0.1666667         8  -14
  -0.6666667  -0.3333333   0.6666667         7   -4
  -0.8333333  -0.1666667   0.5000000        15   11
   1.0000000   0.0000000   0.3333333        16  -21
  -0.1666667  -0.8333333  -0.8333333        11   -7
  -0.3333333  -0.6666667  -1.0000000        14   -7
   0.6666667   0.6666667   0.0000000        12  -14
  -0.5000000  -0.1666667   0.8333333        15   -4
  -0.6666667   0.0000000   0.6666667        12    2
  -0.8333333   0.1666667   0.5000000        15  -12
   0.0000000  -0.6666667  -0.6666667        12    6
  -0.1666667  -0.5000000  -0.8333333        15   -7
   0.8333333   0.8333333   0.1666667        11   16
  -0.3333333   0.0000000   1.0000000        16  -13
  -0.5000000   0.1666667   0.8333333        15    2
  -0.6666667   0.3333333   0.6666667         7    2
   0.1666667  -0.5000000  -0.5000000         8    6
   1.0000000   0.6666667   0.3333333        14  -18
   0.0000000   0.0000000  -0.6666667        10  -13
   0.8333333  -0.8333333   0.1666667        11  -13
   0.6666667  -0.6666667   0.0000000        12  -13
   0.5000000  -0.5000000  -0.1666667         8   15
   0.3333333  -0.3333333  -0.3333333         3    2
   0.1666667  -0.1666667  -0.5000000         6  -15
   0.1666667   0.1666667  -0.5000000         6   14
  -1.0000000  -0.6666667   0.3333333        14  -17
  -0.1666667   0.5000000  -0.8333333        15    5
  -0.3333333   0.6666667  -1.0000000        14    5
   0.5000000  -0.1666667  -0.1666667         6   -6
   0.3333333   0.0000000  -0.3333333         9   -2
   0.1666667   0.1666667  -0.1666667         2   -4
   0.0000000   0.3333333  -0.3333333         9    5
  -0.1666667   0.5000000  -0.5000000         8    5
  -0.3333333   0.6666667  -0.6666667         7    5
   0.5000000  -0.1666667   0.1666667         6    5
   0.3333333   0.0000000   0.0000000         5    5
   0.3333333   0.3333333   0.0000000         9  -14
   0.1666667   0.5000000  -0.1666667         6   -4
   1.0000000  -0.3333333   0.6666667        14  -10
   0.8333333  -0.1666667   0.5000000        15  -10
  -0.3333333   1.0000000  -0.6666667        14  -22
   0.5000000   0.1666667   0.1666667         6   -7
   0.5000000   0.5000000   0.1666667         8   16
  -0.6666667  -0.3333333  -1.0000000        14    3
  -0.8333333  -0.1666667   0.8333333        11   -4
   0.0000000   1.0000000  -0.3333333        16    9
   0.8333333   0.1666667   0.5000000        15    9
  -0.3333333  -0.6666667  -0.6666667         7   -7
   0.6666667   0.6666667   0.3333333         7   16
  -0.5000000  -0.1666667  -0.8333333        15    3
   0.3333333   1.0000000   0.0000000        16   -1
  -0.8333333   0.1666667   0.8333333        11    2
   1.0000000   0.3333333   0.6666667        14    9
  -0.1666667  -0.5000000  -0.5000000         8   -7
  -0.1666667  -0.1666667  -0.5000000         6   16
   0.6666667  -1.0000000   0.3333333        14  -13
  -0.5000000   0.1666667  -0.8333333        15   -1
  -0.6666667   0.3333333  -1.0000000        14   -1
   0.1666667  -0.5000000  -0.1666667         6    2
   0.0000000  -0.3333333  -0.3333333         9    6
   0.0000000   0.0000000  -0.3333333         5  -13
  -0.1666667   0.1666667  -0.5000000         6  -13
   0.6666667  -0.6666667   0.3333333         7  -13
   0.5000000  -0.5000000   0.1666667         8  -13
   0.3333333  -0.3333333   0.0000000         9  -13
   0.1666667  -0.1666667  -0.1666667         2    2

     Parallelization info
     --------------------
     sticks:   dense  smooth     PW     G-vecs:    dense   smooth      PW
     Min          72      72     21                 1652     1652     266
     Max          73      73     22                 1657     1657     269
     Sum        1159    1159    349                26469    26469    4279

     Using Slab Decomposition



     bravais-lattice index     =            2
     lattice parameter (alat)  =      10.3230  a.u.
     unit-cell volume          =     275.0159 (a.u.)^3
     number of atoms/cell      =            3
     number of atomic types    =            2
     number of electrons       =        24.00
     number of Kohn-Sham states=           20
     kinetic-energy cutoff     =      80.0000  Ry
     charge density cutoff     =     320.0000  Ry
     cutoff for Fock operator  =     320.0000  Ry
     scf convergence threshold =      1.0E-08
     mixing beta               =       0.7000
     number of iterations used =            8  plain     mixing
     Exchange-correlation= HSE
                           (   1   4  12   4   0   0   0)
     EXX-fraction              =        1.00

     celldm(1)=  10.323000  celldm(2)=   0.000000  celldm(3)=   0.000000
     celldm(4)=   0.000000  celldm(5)=   0.000000  celldm(6)=   0.000000

     crystal axes: (cart. coord. in units of alat)
               a(1) = (  -0.500000   0.000000   0.500000 )  
               a(2) = (   0.000000   0.500000   0.500000 )  
               a(3) = (  -0.500000   0.500000   0.000000 )  

     reciprocal axes: (cart. coord. in units 2 pi/alat)
               b(1) = ( -1.000000 -1.000000  1.000000 )  
               b(2) = (  1.000000  1.000000  1.000000 )  
               b(3) = ( -1.000000  1.000000 -1.000000 )  


     PseudoPot. # 1 for Ca read from file:
     ../../../../pseudos/Ca_ONCV_PBE-1.2.upf
     MD5 check sum: b43c970dc090f2312d256360aabdb6f1
     Pseudo is Norm-conserving, Zval = 10.0
     Generated using ONCVPSP code by D. R. Hamann
     Using radial grid of  602 points,  6 beta functions with: 
                l(1) =   0
                l(2) =   0
                l(3) =   1
                l(4) =   1
                l(5) =   2
                l(6) =   2

     PseudoPot. # 2 for F  read from file:
     ../../../../pseudos/F_ONCV_PBE-1.2.upf
     MD5 check sum: 1d8275f47d602dd53cad6bcdc0eda7dc
     Pseudo is Norm-conserving, Zval =  7.0
     Generated using ONCVPSP code by D. R. Hamann
     Using radial grid of  602 points,  4 beta functions with: 
                l(1) =   0
                l(2) =   0
                l(3) =   1
                l(4) =   1

     atomic species   valence    mass     pseudopotential
     Ca               10.00    40.07800     Ca( 1.00)
     F                 7.00    18.99800     F ( 1.00)

     48 Sym. Ops., with inversion, found


                                    s                        frac. trans.

      isym =  1     identity                                     

 cryst.   s( 1) = (     1          0          0      )
                  (     0          1          0      )
                  (     0          0          1      )

 cart.    s( 1) = (  1.0000000  0.0000000  0.0000000 )
                  (  0.0000000  1.0000000  0.0000000 )
                  (  0.0000000  0.0000000  1.0000000 )


      isym =  2     180 deg rotation - cart. axis [0,0,1]        

 cryst.   s( 2) = (     0          1         -1      )
                  (     1          0         -1      )
                  (     0          0         -1      )

 cart.    s( 2) = ( -1.0000000  0.0000000  0.0000000 )
                  (  0.0000000 -1.0000000  0.0000000 )
                  (  0.0000000  0.0000000  1.0000000 )


      isym =  3     180 deg rotation - cart. axis [0,1,0]        

 cryst.   s( 3) = (    -1          0          0      )
                  (    -1          0          1      )
                  (    -1          1          0      )

 cart.    s( 3) = ( -1.0000000  0.0000000  0.0000000 )
                  (  0.0000000  1.0000000  0.0000000 )
                  (  0.0000000  0.0000000 -1.0000000 )


      isym =  4     180 deg rotation - cart. axis [1,0,0]        

 cryst.   s( 4) = (     0         -1          1      )
                  (     0         -1          0      )
                  (     1         -1          0      )

 cart.    s( 4) = (  1.0000000  0.0000000  0.0000000 )
                  (  0.0000000 -1.0000000  0.0000000 )
                  (  0.0000000  0.0000000 -1.0000000 )


      isym =  5     180 deg rotation - cart. axis [1,1,0]        

 cryst.   s( 5) = (     0         -1          0      )
                  (    -1          0          0      )
                  (     0          0         -1      )

 cart.    s( 5) = (  0.0000000  1.0000000  0.0000000 )
                  (  1.0000000  0.0000000  0.0000000 )
                  (  0.0000000  0.0000000 -1.0000000 )


      isym =  6     180 deg rotation - cart. axis [1,-1,0]       

 cryst.   s( 6) = (    -1          0          1      )
                  (     0         -1          1      )
                  (     0          0          1      )

 cart.    s( 6) = (  0.0000000 -1.0000000  0.0000000 )
                  ( -1.0000000  0.0000000  0.0000000 )
                  (  0.0000000  0.0000000 -1.0000000 )


      isym =  7      90 deg rotation - cart. axis [0,0,-1]       

 cryst.   s( 7) = (     0          1          0      )
                  (     0          1         -1      )
                  (    -1          1          0      )

 cart.    s( 7) = (  0.0000000  1.0000000  0.0000000 )
                  ( -1.0000000  0.0000000  0.0000000 )
                  (  0.0000000  0.0000000  1.0000000 )


      isym =  8      90 deg rotation - cart. axis [0,0,1]        

 cryst.   s( 8) = (     1          0         -1      )
                  (     1          0          0      )
                  (     1         -1          0      )

 cart.    s( 8) = (  0.0000000 -1.0000000  0.0000000 )
                  (  1.0000000  0.0000000  0.0000000 )
                  (  0.0000000  0.0000000  1.0000000 )


      isym =  9     180 deg rotation - cart. axis [1,0,1]        

 cryst.   s( 9) = (    -1          0          0      )
                  (     0          0         -1      )
                  (     0         -1          0      )

 cart.    s( 9) = (  0.0000000  0.0000000  1.0000000 )
                  (  0.0000000 -1.0000000  0.0000000 )
                  (  1.0000000  0.0000000  0.0000000 )


      isym = 10     180 deg rotation - cart. axis [-1,0,1]       

 cryst.   s(10) = (     1          0          0      )
                  (     1         -1          0      )
                  (     1          0         -1      )

 cart.    s(10) = (  0.0000000  0.0000000 -1.0000000 )
                  (  0.0000000 -1.0000000  0.0000000 )
                  ( -1.0000000  0.0000000  0.0000000 )


      isym = 11      90 deg rotation - cart. axis [0,1,0]        

 cryst.   s(11) = (     0          1         -1      )
                  (    -1          1          0      )
                  (     0          1          0      )

 cart.    s(11) = (  0.0000000  0.0000000  1.0000000 )
                  (  0.0000000  1.0000000  0.0000000 )
                  ( -1.0000000  0.0000000  0.0000000 )


      isym = 12      90 deg rotation - cart. axis [0,-1,0]       

 cryst.   s(12) = (     0         -1          1      )
                  (     0          0          1      )
                  (    -1          0          1      )

 cart.    s(12) = (  0.0000000  0.0000000 -1.0000000 )
                  (  0.0000000  1.0000000  0.0000000 )
                  (  1.0000000  0.0000000  0.0000000 )


      isym = 13     180 deg rotation - cart. axis [0,1,1]        

 cryst.   s(13) = (    -1          1          0      )
                  (     0          1          0      )
                  (     0          1         -1      )

 cart.    s(13) = ( -1.0000000  0.0000000  0.0000000 )
                  (  0.0000000  0.0000000  1.0000000 )
                  (  0.0000000  1.0000000  0.0000000 )


      isym = 14     180 deg rotation - cart. axis [0,1,-1]       

 cryst.   s(14) = (     0          0         -1      )
                  (     0         -1          0      )
                  (    -1          0          0      )

 cart.    s(14) = ( -1.0000000  0.0000000  0.0000000 )
                  (  0.0000000  0.0000000 -1.0000000 )
                  (  0.0000000 -1.0000000  0.0000000 )


      isym = 15      90 deg rotation - cart. axis [-1,0,0]       

 cryst.   s(15) = (     0          0          1      )
                  (    -1          0          1      )
                  (     0         -1          1      )

 cart.    s(15) = (  1.0000000  0.0000000  0.0000000 )
                  (  0.0000000  0.0000000  1.0000000 )
                  (  0.0000000 -1.0000000  0.0000000 )


      isym = 16      90 deg rotation - cart. axis [1,0,0]        

 cryst.   s(16) = (     1         -1          0      )
                  (     1          0         -1      )
                  (     1          0          0      )

 cart.    s(16) = (  1.0000000  0.0000000  0.0000000 )
                  (  0.0000000  0.0000000 -1.0000000 )
                  (  0.0000000  1.0000000  0.0000000 )


      isym = 17     120 deg rotation - cart. axis [-1,-1,-1]     

 cryst.   s(17) = (    -1          0          1      )
                  (    -1          1          0      )
                  (    -1          0          0      )

 cart.    s(17) = (  0.0000000  1.0000000  0.0000000 )
                  (  0.0000000  0.0000000  1.0000000 )
                  (  1.0000000  0.0000000  0.0000000 )


      isym = 18     120 deg rotation - cart. axis [-1,1,1]       

 cryst.   s(18) = (     0          1          0      )
                  (     0          0          1      )
                  (     1          0          0      )

 cart.    s(18) = (  0.0000000 -1.0000000  0.0000000 )
                  (  0.0000000  0.0000000  1.0000000 )
                  ( -1.0000000  0.0000000  0.0000000 )


      isym = 19     120 deg rotation - cart. axis [1,1,-1]       

 cryst.   s(19) = (     1          0         -1      )
                  (     0          0         -1      )
                  (     0          1         -1      )

 cart.    s(19) = (  0.0000000  1.0000000  0.0000000 )
                  (  0.0000000  0.0000000 -1.0000000 )
                  ( -1.0000000  0.0000000  0.0000000 )


      isym = 20     120 deg rotation - cart. axis [1,-1,1]       

 cryst.   s(20) = (     0         -1          0      )
                  (     1         -1          0      )
                  (     0         -1          1      )

 cart.    s(20) = (  0.0000000 -1.0000000  0.0000000 )
                  (  0.0000000  0.0000000 -1.0000000 )
                  (  1.0000000  0.0000000  0.0000000 )


      isym = 21     120 deg rotation - cart. axis [1,1,1]        

 cryst.   s(21) = (     0          0         -1      )
                  (     0          1         -1      )
                  (     1          0         -1      )

 cart.    s(21) = (  0.0000000  0.0000000  1.0000000 )
                  (  1.0000000  0.0000000  0.0000000 )
                  (  0.0000000  1.0000000  0.0000000 )


      isym = 22     120 deg rotation - cart. axis [-1,1,-1]      

 cryst.   s(22) = (    -1          1          0      )
                  (    -1          0          0      )
                  (    -1          0          1      )

 cart.    s(22) = (  0.0000000  0.0000000  1.0000000 )
                  ( -1.0000000  0.0000000  0.0000000 )
                  (  0.0000000 -1.0000000  0.0000000 )


      isym = 23     120 deg rotation - cart. axis [1,-1,-1]      

 cryst.   s(23) = (     0          0          1      )
                  (     1          0          0      )
                  (     0          1          0      )

 cart.    s(23) = (  0.0000000  0.0000000 -1.0000000 )
                  ( -1.0000000  0.0000000  0.0000000 )
                  (  0.0000000  1.0000000  0.0000000 )


      isym = 24     120 deg rotation - cart. axis [-1,-1,1]      

 cryst.   s(24) = (     1         -1          0      )
                  (     0         -1          1      )
                  (     0         -1          0      )

 cart.    s(24) = (  0.0000000  0.0000000 -1.0000000 )
                  (  1.0000000  0.0000000  0.0000000 )
                  (  0.0000000 -1.0000000  0.0000000 )


      isym = 25     inversion                                    

 cryst.   s(25) = (    -1          0          0      )
                  (     0         -1          0      )
                  (     0          0         -1      )

 cart.    s(25) = ( -1.0000000  0.0000000  0.0000000 )
                  (  0.0000000 -1.0000000  0.0000000 )
                  (  0.0000000  0.0000000 -1.0000000 )


      isym = 26     inv. 180 deg rotation - cart. axis [0,0,1]   

 cryst.   s(26) = (     0         -1          1      )
                  (    -1          0          1      )
                  (     0          0          1      )

 cart.    s(26) = (  1.0000000  0.0000000  0.0000000 )
                  (  0.0000000  1.0000000  0.0000000 )
                  (  0.0000000  0.0000000 -1.0000000 )


      isym = 27     inv. 180 deg rotation - cart. axis [0,1,0]   

 cryst.   s(27) = (     1          0          0      )
                  (     1          0         -1      )
                  (     1         -1          0      )

 cart.    s(27) = (  1.0000000  0.0000000  0.0000000 )
                  (  0.0000000 -1.0000000  0.0000000 )
                  (  0.0000000  0.0000000  1.0000000 )


      isym = 28     inv. 180 deg rotation - cart. axis [1,0,0]   

 cryst.   s(28) = (     0          1         -1      )
                  (     0          1          0      )
                  (    -1          1          0      )

 cart.    s(28) = ( -1.0000000  0.0000000  0.0000000 )
                  (  0.0000000  1.0000000  0.0000000 )
                  (  0.0000000  0.0000000  1.0000000 )


      isym = 29     inv. 180 deg rotation - cart. axis [1,1,0]   

 cryst.   s(29) = (     0          1          0      )
                  (     1          0          0      )
                  (     0          0          1      )

 cart.    s(29) = (  0.0000000 -1.0000000  0.0000000 )
                  ( -1.0000000  0.0000000  0.0000000 )
                  (  0.0000000  0.0000000  1.0000000 )


      isym = 30     inv. 180 deg rotation - cart. axis [1,-1,0]  

 cryst.   s(30) = (     1          0         -1      )
                  (     0          1         -1      )
                  (     0          0         -1      )

 cart.    s(30) = (  0.0000000  1.0000000  0.0000000 )
                  (  1.0000000  0.0000000  0.0000000 )
                  (  0.0000000  0.0000000  1.0000000 )


      isym = 31     inv.  90 deg rotation - cart. axis [0,0,-1]  

 cryst.   s(31) = (     0         -1          0      )
                  (     0         -1          1      )
                  (     1         -1          0      )

 cart.    s(31) = (  0.0000000 -1.0000000  0.0000000 )
                  (  1.0000000  0.0000000  0.0000000 )
                  (  0.0000000  0.0000000 -1.0000000 )


      isym = 32     inv.  90 deg rotation - cart. axis [0,0,1]   

 cryst.   s(32) = (    -1          0          1      )
                  (    -1          0          0      )
                  (    -1          1          0      )

 cart.    s(32) = (  0.0000000  1.0000000  0.0000000 )
                  ( -1.0000000  0.0000000  0.0000000 )
                  (  0.0000000  0.0000000 -1.0000000 )


      isym = 33     inv. 180 deg rotation - cart. axis [1,0,1]   

 cryst.   s(33) = (     1          0          0      )
                  (     0          0          1      )
                  (     0          1          0      )

 cart.    s(33) = (  0.0000000  0.0000000 -1.0000000 )
                  (  0.0000000  1.0000000  0.0000000 )
                  ( -1.0000000  0.0000000  0.0000000 )


      isym = 34     inv. 180 deg rotation - cart. axis [-1,0,1]  

 cryst.   s(34) = (    -1          0          0      )
                  (    -1          1          0      )
                  (    -1          0          1      )

 cart.    s(34) = (  0.0000000  0.0000000  1.0000000 )
                  (  0.0000000  1.0000000  0.0000000 )
                  (  1.0000000  0.0000000  0.0000000 )


      isym = 35     inv.  90 deg rotation - cart. axis [0,1,0]   

 cryst.   s(35) = (     0         -1          1      )
                  (     1         -1          0      )
                  (     0         -1          0      )

 cart.    s(35) = (  0.0000000  0.0000000 -1.0000000 )
                  (  0.0000000 -1.0000000  0.0000000 )
                  (  1.0000000  0.0000000  0.0000000 )


      isym = 36     inv.  90 deg rotation - cart. axis [0,-1,0]  

 cryst.   s(36) = (     0          1         -1      )
                  (     0          0         -1      )
                  (     1          0         -1      )

 cart.    s(36) = (  0.0000000  0.0000000  1.0000000 )
                  (  0.0000000 -1.0000000  0.0000000 )
                  ( -1.0000000  0.0000000  0.0000000 )


      isym = 37     inv. 180 deg rotation - cart. axis [0,1,1]   

 cryst.   s(37) = (     1         -1          0      )
                  (     0         -1          0      )
                  (     0         -1          1      )

 cart.    s(37) = (  1.0000000  0.0000000  0.0000000 )
                  (  0.0000000  0.0000000 -1.0000000 )
                  (  0.0000000 -1.0000000  0.0000000 )


      isym = 38     inv. 180 deg rotation - cart. axis [0,1,-1]  

 cryst.   s(38) = (     0          0          1      )
                  (     0          1          0      )
                  (     1          0          0      )

 cart.    s(38) = (  1.0000000  0.0000000  0.0000000 )
                  (  0.0000000  0.0000000  1.0000000 )
                  (  0.0000000  1.0000000  0.0000000 )


      isym = 39     inv.  90 deg rotation - cart. axis [-1,0,0]  

 cryst.   s(39) = (     0          0         -1      )
                  (     1          0         -1      )
                  (     0          1         -1      )

 cart.    s(39) = ( -1.0000000  0.0000000  0.0000000 )
                  (  0.0000000  0.0000000 -1.0000000 )
                  (  0.0000000  1.0000000  0.0000000 )


      isym = 40     inv.  90 deg rotation - cart. axis [1,0,0]   

 cryst.   s(40) = (    -1          1          0      )
                  (    -1          0          1      )
                  (    -1          0          0      )

 cart.    s(40) = ( -1.0000000  0.0000000  0.0000000 )
                  (  0.0000000  0.0000000  1.0000000 )
                  (  0.0000000 -1.0000000  0.0000000 )


      isym = 41     inv. 120 deg rotation - cart. axis [-1,-1,-1]

 cryst.   s(41) = (     1          0         -1      )
                  (     1         -1          0      )
                  (     1          0          0      )

 cart.    s(41) = (  0.0000000 -1.0000000  0.0000000 )
                  (  0.0000000  0.0000000 -1.0000000 )
                  ( -1.0000000  0.0000000  0.0000000 )


      isym = 42     inv. 120 deg rotation - cart. axis [-1,1,1]  

 cryst.   s(42) = (     0         -1          0      )
                  (     0          0         -1      )
                  (    -1          0          0      )

 cart.    s(42) = (  0.0000000  1.0000000  0.0000000 )
                  (  0.0000000  0.0000000 -1.0000000 )
                  (  1.0000000  0.0000000  0.0000000 )


      isym = 43     inv. 120 deg rotation - cart. axis [1,1,-1]  

 cryst.   s(43) = (    -1          0          1      )
                  (     0          0          1      )
                  (     0         -1          1      )

 cart.    s(43) = (  0.0000000 -1.0000000  0.0000000 )
                  (  0.0000000  0.0000000  1.0000000 )
                  (  1.0000000  0.0000000  0.0000000 )


      isym = 44     inv. 120 deg rotation - cart. axis [1,-1,1]  

 cryst.   s(44) = (     0          1          0      )
                  (    -1          1          0      )
                  (     0          1         -1      )

 cart.    s(44) = (  0.0000000  1.0000000  0.0000000 )
                  (  0.0000000  0.0000000  1.0000000 )
                  ( -1.0000000  0.0000000  0.0000000 )


      isym = 45     inv. 120 deg rotation - cart. axis [1,1,1]   

 cryst.   s(45) = (     0          0          1      )
                  (     0         -1          1      )
                  (    -1          0          1      )

 cart.    s(45) = (  0.0000000  0.0000000 -1.0000000 )
                  ( -1.0000000  0.0000000  0.0000000 )
                  (  0.0000000 -1.0000000  0.0000000 )


      isym = 46     inv. 120 deg rotation - cart. axis [-1,1,-1] 

 cryst.   s(46) = (     1         -1          0      )
                  (     1          0          0      )
                  (     1          0         -1      )

 cart.    s(46) = (  0.0000000  0.0000000 -1.0000000 )
                  (  1.0000000  0.0000000  0.0000000 )
                  (  0.0000000  1.0000000  0.0000000 )


      isym = 47     inv. 120 deg rotation - cart. axis [1,-1,-1] 

 cryst.   s(47) = (     0          0         -1      )
                  (    -1          0          0      )
                  (     0         -1          0      )

 cart.    s(47) = (  0.0000000  0.0000000  1.0000000 )
                  (  1.0000000  0.0000000  0.0000000 )
                  (  0.0000000 -1.0000000  0.0000000 )


      isym = 48     inv. 120 deg rotation - cart. axis [-1,-1,1] 

 cryst.   s(48) = (    -1          1          0      )
                  (     0          1         -1      )
                  (     0          1          0      )

 cart.    s(48) = (  0.0000000  0.0000000  1.0000000 )
                  ( -1.0000000  0.0000000  0.0000000 )
                  (  0.0000000  1.0000000  0.0000000 )


     point group O_h (m-3m) 
     there are 10 classes
     the character table:

       E     8C3   3C2   6C4   6C2'  i     8S6   3s_h  6S4   6s_d 
A_1g   1.00  1.00  1.00  1.00  1.00  1.00  1.00  1.00  1.00  1.00
A_2g   1.00  1.00  1.00 -1.00 -1.00  1.00  1.00  1.00 -1.00 -1.00
E_g    2.00 -1.00  2.00  0.00  0.00  2.00 -1.00  2.00  0.00  0.00
T_1g   3.00  0.00 -1.00  1.00 -1.00  3.00  0.00 -1.00  1.00 -1.00
T_2g   3.00  0.00 -1.00 -1.00  1.00  3.00  0.00 -1.00 -1.00  1.00
A_1u   1.00  1.00  1.00  1.00  1.00 -1.00 -1.00 -1.00 -1.00 -1.00
A_2u   1.00  1.00  1.00 -1.00 -1.00 -1.00 -1.00 -1.00  1.00  1.00
E_u    2.00 -1.00  2.00  0.00  0.00 -2.00  1.00 -2.00  0.00  0.00
T_1u   3.00  0.00 -1.00  1.00 -1.00 -3.00  0.00  1.00 -1.00  1.00
T_2u   3.00  0.00 -1.00 -1.00  1.00 -3.00  0.00  1.00  1.00 -1.00

     the symmetry operations in each class and the name of the first element:

     E        1
          identity                                               
     8C3     17   19   20   18   24   21   22   23
          120 deg rotation - cart. axis [-1,-1,-1]               
     3C2      2    4    3
          180 deg rotation - cart. axis [0,0,1]                  
     6C4      7    8   15   16   12   11
           90 deg rotation - cart. axis [0,0,-1]                 
     6C2'     5    6   14   13   10    9
          180 deg rotation - cart. axis [1,1,0]                  
     i       25
          inversion                                              
     8S6     41   43   44   42   48   45   46   47
          inv. 120 deg rotation - cart. axis [-1,-1,-1]          
     3s_h    26   28   27
          inv. 180 deg rotation - cart. axis [0,0,1]             
     6S4     31   32   39   40   36   35
          inv.  90 deg rotation - cart. axis [0,0,-1]            
     6s_d    29   30   38   37   34   33
          inv. 180 deg rotation - cart. axis [1,1,0]             

   Cartesian axes

     site n.     atom                  positions (alat units)
         1        Ca     tau(   1) = (   0.0000000   0.0000000   0.0000000  )
         2        F      tau(   2) = (  -0.2500000   0.2500000   0.2500000  )
         3        F      tau(   3) = (  -0.7500000   0.7500000   0.7500000  )

   Crystallographic axes

     site n.     atom                  positions (cryst. coord.)
         1        Ca     tau(   1) = (  0.0000000  0.0000000  0.0000000  )
         2        F      tau(   2) = (  0.2500000  0.2500000  0.2500000  )
         3        F      tau(   3) = (  0.7500000  0.7500000  0.7500000  )

     number of k points=    16
                       cart. coord. in units 2pi/alat
        k(    1) = (   0.0000000   0.0000000   0.0000000), wk =   0.0092593
        k(    2) = (  -0.1666667   0.1666667  -0.1666667), wk =   0.0740741
        k(    3) = (  -0.3333333   0.3333333  -0.3333333), wk =   0.0740741
        k(    4) = (   0.5000000  -0.5000000   0.5000000), wk =   0.0370370
        k(    5) = (   0.0000000   0.3333333   0.0000000), wk =   0.0555556
        k(    6) = (  -0.1666667   0.5000000  -0.1666667), wk =   0.2222222
        k(    7) = (   0.6666667  -0.3333333   0.6666667), wk =   0.2222222
        k(    8) = (   0.5000000  -0.1666667   0.5000000), wk =   0.2222222
        k(    9) = (   0.3333333   0.0000000   0.3333333), wk =   0.1111111
        k(   10) = (   0.0000000   0.6666667   0.0000000), wk =   0.0555556
        k(   11) = (   0.8333333  -0.1666667   0.8333333), wk =   0.2222222
        k(   12) = (   0.6666667  -0.0000000   0.6666667), wk =   0.1111111
        k(   13) = (   0.0000000  -1.0000000   0.0000000), wk =   0.0277778
        k(   14) = (   0.6666667  -0.3333333   1.0000000), wk =   0.2222222
        k(   15) = (   0.5000000  -0.1666667   0.8333333), wk =   0.2222222
        k(   16) = (  -0.3333333  -1.0000000   0.0000000), wk =   0.1111111

                       cryst. coord.
        k(    1) = (   0.0000000   0.0000000   0.0000000), wk =   0.0092593
        k(    2) = (   0.0000000   0.0000000   0.1666667), wk =   0.0740741
        k(    3) = (   0.0000000   0.0000000   0.3333333), wk =   0.0740741
        k(    4) = (   0.0000000   0.0000000  -0.5000000), wk =   0.0370370
        k(    5) = (   0.0000000   0.1666667   0.1666667), wk =   0.0555556
        k(    6) = (   0.0000000   0.1666667   0.3333333), wk =   0.2222222
        k(    7) = (   0.0000000   0.1666667  -0.5000000), wk =   0.2222222
        k(    8) = (   0.0000000   0.1666667  -0.3333333), wk =   0.2222222
        k(    9) = (   0.0000000   0.1666667  -0.1666667), wk =   0.1111111
        k(   10) = (   0.0000000   0.3333333   0.3333333), wk =   0.0555556
        k(   11) = (   0.0000000   0.3333333  -0.5000000), wk =   0.2222222
        k(   12) = (   0.0000000   0.3333333  -0.3333333), wk =   0.1111111
        k(   13) = (   0.0000000  -0.5000000  -0.5000000), wk =   0.0277778
        k(   14) = (   0.1666667   0.3333333  -0.5000000), wk =   0.2222222
        k(   15) = (   0.1666667   0.3333333  -0.3333333), wk =   0.2222222
        k(   16) = (   0.1666667  -0.5000000  -0.3333333), wk =   0.1111111

     Dense  grid:    26469 G-vectors     FFT dimensions: (  45,  45,  45)

     Dynamical RAM for                 wfc:       0.06 MB

     Dynamical RAM for     wfc (w. buffer):       1.07 MB

     Dynamical RAM for                 EXX:     221.78 MB

     Dynamical RAM for           str. fact:       0.05 MB

     Dynamical RAM for           local pot:       0.00 MB

     Dynamical RAM for          nlocal pot:       0.11 MB

     Dynamical RAM for                qrad:       3.11 MB

     Dynamical RAM for          rho,v,vnew:       0.21 MB

     Dynamical RAM for               rhoin:       0.07 MB

     Dynamical RAM for            rho*nmix:       0.40 MB

     Dynamical RAM for           G-vectors:       0.11 MB

     Dynamical RAM for          h,s,v(r/c):       0.07 MB

     Dynamical RAM for          <psi|beta>:       0.01 MB

     Dynamical RAM for                 psi:       0.13 MB

     Dynamical RAM for                hpsi:       0.13 MB

     Dynamical RAM for      wfcinit/wfcrot:       0.14 MB

     Estimated static dynamical RAM per process >     226.83 MB

     Estimated max dynamical RAM per process >     227.57 MB

     Estimated total dynamical RAM >       3.56 GB
     EXX: ACE will be initialized later

     Initial potential from superposition of free atoms

     starting charge      23.7954, renormalised to      24.0000
     Starting wfcs are random

     total cpu time spent up to now is        0.2 secs

     Self-consistent Calculation

     iteration #  1     ecut=    80.00 Ry     beta= 0.70
     Davidson diagonalization with overlap

---- Real-time Memory Report at c_bands before calling an iterative solver
            69 MiB given to the printing process from OS
             0 MiB allocation reported by mallinfo(arena+hblkhd)
         13227 MiB available memory on the node where the printing process lives
------------------
     ethr =  1.00E-02,  avg # of iterations =  9.4

     Threshold (ethr) on eigenvalues was too large:
     Diagonalizing with lowered threshold

     Davidson diagonalization with overlap

---- Real-time Memory Report at c_bands before calling an iterative solver
            70 MiB given to the printing process from OS
             0 MiB allocation reported by mallinfo(arena+hblkhd)
         13220 MiB available memory on the node where the printing process lives
------------------
     ethr =  8.03E-04,  avg # of iterations =  1.0

     total cpu time spent up to now is        1.4 secs

     total energy              =    -169.75130165 Ry
     estimated scf accuracy    <       0.19800488 Ry

     iteration #  2     ecut=    80.00 Ry     beta= 0.70
     Davidson diagonalization with overlap

---- Real-time Memory Report at c_bands before calling an iterative solver
            70 MiB given to the printing process from OS
             0 MiB allocation reported by mallinfo(arena+hblkhd)
         13211 MiB available memory on the node where the printing process lives
------------------
     ethr =  8.25E-04,  avg # of iterations =  2.2

     total cpu time spent up to now is        1.9 secs

     total energy              =    -169.79496378 Ry
     estimated scf accuracy    <       0.14250336 Ry

     iteration #  3     ecut=    80.00 Ry     beta= 0.70
     Davidson diagonalization with overlap

---- Real-time Memory Report at c_bands before calling an iterative solver
            70 MiB given to the printing process from OS
             0 MiB allocation reported by mallinfo(arena+hblkhd)
         13209 MiB available memory on the node where the printing process lives
------------------
     ethr =  5.94E-04,  avg # of iterations =  2.0

     total cpu time spent up to now is        2.2 secs

     total energy              =    -169.82689398 Ry
     estimated scf accuracy    <       0.00187732 Ry

     iteration #  4     ecut=    80.00 Ry     beta= 0.70
     Davidson diagonalization with overlap

---- Real-time Memory Report at c_bands before calling an iterative solver
            71 MiB given to the printing process from OS
             0 MiB allocation reported by mallinfo(arena+hblkhd)
         13208 MiB available memory on the node where the printing process lives
------------------
     ethr =  7.82E-06,  avg # of iterations =  3.0

     total cpu time spent up to now is        2.6 secs

     total energy              =    -169.82714422 Ry
     estimated scf accuracy    <       0.00001765 Ry

     iteration #  5     ecut=    80.00 Ry     beta= 0.70
     Davidson diagonalization with overlap

---- Real-time Memory Report at c_bands before calling an iterative solver
            71 MiB given to the printing process from OS
             0 MiB allocation reported by mallinfo(arena+hblkhd)
         13208 MiB available memory on the node where the printing process lives
------------------
     ethr =  7.36E-08,  avg # of iterations =  2.4

     total cpu time spent up to now is        3.0 secs

     total energy              =    -169.82714741 Ry
     estimated scf accuracy    <       0.00000297 Ry

     iteration #  6     ecut=    80.00 Ry     beta= 0.70
     Davidson diagonalization with overlap

---- Real-time Memory Report at c_bands before calling an iterative solver
            71 MiB given to the printing process from OS
             0 MiB allocation reported by mallinfo(arena+hblkhd)
         13070 MiB available memory on the node where the printing process lives
------------------
     ethr =  1.24E-08,  avg # of iterations =  2.0

     total cpu time spent up to now is        3.4 secs

     total energy              =    -169.82714807 Ry
     estimated scf accuracy    <       0.00000009 Ry

     iteration #  7     ecut=    80.00 Ry     beta= 0.70
     Davidson diagonalization with overlap

---- Real-time Memory Report at c_bands before calling an iterative solver
            71 MiB given to the printing process from OS
             0 MiB allocation reported by mallinfo(arena+hblkhd)
         13205 MiB available memory on the node where the printing process lives
------------------
     ethr =  3.69E-10,  avg # of iterations =  1.9

     total cpu time spent up to now is        3.8 secs

     End of self-consistent calculation

          k = 0.0000 0.0000 0.0000 (  3287 PWs)   bands (ev):

   -32.6598 -16.4491 -15.6771 -13.5954 -13.5954 -13.5954   1.2982   1.2982
     1.2982   3.1350   3.1350   3.1350  10.7212  12.5687  12.5687  14.6025
    14.6025  14.6025  20.3999  20.3999

     occupation numbers 
     1.0000   1.0000   1.0000   1.0000   1.0000   1.0000   1.0000   1.0000
     1.0000   1.0000   1.0000   1.0000   0.0000   0.0000   0.0000   0.0000
     0.0000   0.0000   0.0000   0.0000

          k =-0.1667 0.1667-0.1667 (  3329 PWs)   bands (ev):

   -32.6516 -16.5160 -15.7500 -13.6057 -13.6057 -13.4733   1.4189   1.4189
     1.5125   2.8398   3.0131   3.0131  11.3901  12.6226  12.6226  14.3690
    14.5362  14.5362  19.2674  20.9742

     occupation numbers 
     1.0000   1.0000   1.0000   1.0000   1.0000   1.0000   1.0000   1.0000
     1.0000   1.0000   1.0000   1.0000   0.0000   0.0000   0.0000   0.0000
     0.0000   0.0000   0.0000   0.0000

          k =-0.3333 0.3333-0.3333 (  3305 PWs)   bands (ev):

   -32.6353 -16.5878 -15.9613 -13.6262 -13.6262 -13.2183   1.7013   1.7013
     1.9269   2.3539   2.7396   2.7396  12.5875  12.7280  12.7280  14.1890
    14.4035  14.4035  17.6852  22.3385

     occupation numbers 
     1.0000   1.0000   1.0000   1.0000   1.0000   1.0000   1.0000   1.0000
     1.0000   1.0000   1.0000   1.0000   0.0000   0.0000   0.0000   0.0000
     0.0000   0.0000   0.0000   0.0000

          k = 0.5000-0.5000 0.5000 (  3316 PWs)   bands (ev):

   -32.6271 -16.5862 -16.1032 -13.6364 -13.6364 -13.0884   1.8921   1.8921
     2.1114   2.1612   2.5586   2.5586  12.7789  12.7789  13.1466  14.1601
    14.3375  14.3375  17.1490  23.2528

     occupation numbers 
     1.0000   1.0000   1.0000   1.0000   1.0000   1.0000   1.0000   1.0000
     1.0000   1.0000   1.0000   1.0000   0.0000   0.0000   0.0000   0.0000
     0.0000   0.0000   0.0000   0.0000

          k = 0.0000 0.3333 0.0000 (  3327 PWs)   bands (ev):

   -32.6489 -16.5480 -15.7556 -13.6211 -13.6211 -13.4172   1.3807   1.3807
     1.7608   2.4149   3.1461   3.1461  11.6021  12.5018  12.7719  14.2654
    14.4974  14.4974  19.9264  20.5953

     occupation numbers 
     1.0000   1.0000   1.0000   1.0000   1.0000   1.0000   1.0000   1.0000
     1.0000   1.0000   1.0000   1.0000   0.0000   0.0000   0.0000   0.0000
     0.0000   0.0000   0.0000   0.0000

          k =-0.1667 0.5000-0.1667 (  3328 PWs)   bands (ev):

   -32.6353 -16.6171 -15.9201 -13.6442 -13.5912 -13.2472   1.5399   1.5531
     1.8681   2.2707   2.9943   3.0207  12.1357  12.9323  12.9725  13.8868
    14.3873  14.5502  18.6661  21.1944

     occupation numbers 
     1.0000   1.0000   1.0000   1.0000   1.0000   1.0000   1.0000   1.0000
     1.0000   1.0000   1.0000   1.0000   0.0000   0.0000   0.0000   0.0000
     0.0000   0.0000   0.0000   0.0000

          k = 0.6667-0.3333 0.6667 (  3321 PWs)   bands (ev):

   -32.6244 -16.5690 -16.1766 -13.6518 -13.5201 -13.1421   1.5109   1.7601
     1.8343   2.6538   2.6996   2.8338  12.2487  12.9356  13.2237  13.8382
    14.3111  15.2968  17.5319  21.9283

     occupation numbers 
     1.0000   1.0000   1.0000   1.0000   1.0000   1.0000   1.0000   1.0000
     1.0000   1.0000   1.0000   1.0000   0.0000   0.0000   0.0000   0.0000
     0.0000   0.0000   0.0000   0.0000

          k = 0.5000-0.1667 0.5000 (  3334 PWs)   bands (ev):

   -32.6271 -16.5571 -16.1497 -13.6366 -13.5023 -13.2045   1.4326   1.9162
     2.0321   2.4054   2.4166   3.0562  12.2994  12.7878  13.2300  13.8304
    14.3457  15.1171  17.8188  20.8574

     occupation numbers 
     1.0000   1.0000   1.0000   1.0000   1.0000   1.0000   1.0000   1.0000
     1.0000   1.0000   1.0000   1.0000   0.0000   0.0000   0.0000   0.0000
     0.0000   0.0000   0.0000   0.0000

          k = 0.3333 0.0000 0.3333 (  3325 PWs)   bands (ev):

   -32.6407 -16.5718 -15.8869 -13.6135 -13.5679 -13.3576   1.3828   1.6986
     1.9199   2.3496   2.6844   3.1623  12.0961  12.6348  12.8314  14.0433
    14.4609  14.5603  18.8094  20.4475

     occupation numbers 
     1.0000   1.0000   1.0000   1.0000   1.0000   1.0000   1.0000   1.0000
     1.0000   1.0000   1.0000   1.0000   0.0000   0.0000   0.0000   0.0000
     0.0000   0.0000   0.0000   0.0000

          k = 0.0000 0.6667 0.0000 (  3347 PWs)   bands (ev):

   -32.6272 -16.7191 -15.9075 -13.6723 -13.6723 -13.0791   1.2251   1.6004
     1.6004   2.7944   3.1001   3.1001  11.8201  13.2195  13.4371  14.1121
    14.3228  14.3228  19.9428  20.8778

     occupation numbers 
     1.0000   1.0000   1.0000   1.0000   1.0000   1.0000   1.0000   1.0000
     1.0000   1.0000   1.0000   1.0000   0.0000   0.0000   0.0000   0.0000
     0.0000   0.0000   0.0000   0.0000

          k = 0.8333-0.1667 0.8333 (  3314 PWs)   bands (ev):

   -32.6190 -16.6982 -16.0893 -13.6825 -13.5793 -13.0283   0.9601   1.6821
     1.7698   2.9289   3.0015   3.1903  11.7340  13.1322  13.2792  13.9001
    14.2679  16.1290  18.7827  19.7757

     occupation numbers 
     1.0000   1.0000   1.0000   1.0000   1.0000   1.0000   1.0000   1.0000
     1.0000   1.0000   1.0000   1.0000   0.0000   0.0000   0.0000   0.0000
     0.0000   0.0000   0.0000   0.0000

          k = 0.6667-0.0000 0.6667 (  3318 PWs)   bands (ev):

   -32.6189 -16.4763 -16.3704 -13.6648 -13.3724 -13.1935   1.1249   1.6689
     2.0070   2.5619   2.8571   3.2341  11.9194  13.0521  13.2334  13.6232
    14.2741  16.7503  18.5745  18.7333

     occupation numbers 
     1.0000   1.0000   1.0000   1.0000   1.0000   1.0000   1.0000   1.0000
     1.0000   1.0000   1.0000   1.0000   0.0000   0.0000   0.0000   0.0000
     0.0000   0.0000   0.0000   0.0000

          k = 0.0000-1.0000 0.0000 (  3306 PWs)   bands (ev):

   -32.6163 -16.7945 -15.9811 -13.6977 -13.6977 -12.9155   0.7068   1.7513
     1.7513   3.0288   3.0288   3.3900  11.5275  12.9201  13.4693  14.2520
    14.2520  16.7294  18.2297  20.1621

     occupation numbers 
     1.0000   1.0000   1.0000   1.0000   1.0000   1.0000   1.0000   1.0000
     1.0000   1.0000   1.0000   1.0000   0.0000   0.0000   0.0000   0.0000
     0.0000   0.0000   0.0000   0.0000

          k = 0.6667-0.3333 1.0000 (  3317 PWs)   bands (ev):

   -32.6244 -16.6116 -16.1235 -13.6642 -13.4857 -13.1745   1.3868   1.4632
     1.9282   2.6686   2.7859   3.1430  11.9933  13.0142  13.4914  13.5222
    14.3213  15.3809  18.7313  20.1715

     occupation numbers 
     1.0000   1.0000   1.0000   1.0000   1.0000   1.0000   1.0000   1.0000
     1.0000   1.0000   1.0000   1.0000   0.0000   0.0000   0.0000   0.0000
     0.0000   0.0000   0.0000   0.0000

          k = 0.5000-0.1667 0.8333 (  3314 PWs)   bands (ev):

   -32.6189 -16.4805 -16.3657 -13.6783 -13.3390 -13.2139   1.3153   1.3465
     2.2345   2.3944   3.0534   3.1082  11.9623  13.0402  13.2995  13.5218
    14.2828  16.6729  18.0076  20.3479

     occupation numbers 
     1.0000   1.0000   1.0000   1.0000   1.0000   1.0000   1.0000   1.0000
     1.0000   1.0000   1.0000   1.0000   0.0000   0.0000   0.0000   0.0000
     0.0000   0.0000   0.0000   0.0000

          k =-0.3333-1.0000 0.0000 (  3322 PWs)   bands (ev):

   -32.6162 -16.6278 -16.2319 -13.6995 -13.4536 -13.0732   0.9515   1.4833
     2.0449   2.6814   3.0852   3.3287  11.7538  13.0976  13.2372  13.6680
    14.2667  17.9409  18.0062  19.2055

     occupation numbers 
     1.0000   1.0000   1.0000   1.0000   1.0000   1.0000   1.0000   1.0000
     1.0000   1.0000   1.0000   1.0000   0.0000   0.0000   0.0000   0.0000
     0.0000   0.0000   0.0000   0.0000

     highest occupied, lowest unoccupied level (ev):     3.3900   10.7212

!    total energy              =    -169.82714808 Ry
     estimated scf accuracy    <          3.6E-09 Ry

     convergence has been achieved in   7 iterations

     Using ACE for calculation of exact exchange

     EXX grid:    26469 G-vectors     FFT dimensions: (  45,  45,  45)
     ACE projected onto    20 (nbndproj) and applied to    20 (nbnd) bands

     EXX: now go back to refine exchange calculation

     total cpu time spent up to now is      649.8 secs

     Self-consistent Calculation

     iteration #  1     ecut=    80.00 Ry     beta= 0.70
     Davidson diagonalization with overlap

---- Real-time Memory Report at c_bands before calling an iterative solver
           537 MiB given to the printing process from OS
             0 MiB allocation reported by mallinfo(arena+hblkhd)
          5788 MiB available memory on the node where the printing process lives
------------------
     ethr =  3.69E-10,  avg # of iterations =  7.9

     total cpu time spent up to now is      650.9 secs

     total energy              =    -169.81179158 Ry
     estimated scf accuracy    <       0.00524612 Ry

     iteration #  2     ecut=    80.00 Ry     beta= 0.70
     Davidson diagonalization with overlap

---- Real-time Memory Report at c_bands before calling an iterative solver
           537 MiB given to the printing process from OS
             0 MiB allocation reported by mallinfo(arena+hblkhd)
          5787 MiB available memory on the node where the printing process lives
------------------
     ethr =  2.19E-05,  avg # of iterations =  2.0

     total cpu time spent up to now is      651.4 secs

     total energy              =    -169.81289871 Ry
     estimated scf accuracy    <       0.00131136 Ry

     iteration #  3     ecut=    80.00 Ry     beta= 0.70
     Davidson diagonalization with overlap

---- Real-time Memory Report at c_bands before calling an iterative solver
           537 MiB given to the printing process from OS
             0 MiB allocation reported by mallinfo(arena+hblkhd)
          5788 MiB available memory on the node where the printing process lives
------------------
     ethr =  5.46E-06,  avg # of iterations =  2.0

     total cpu time spent up to now is      651.8 secs

     total energy              =    -169.81324459 Ry
     estimated scf accuracy    <       0.00004739 Ry

     iteration #  4     ecut=    80.00 Ry     beta= 0.70
     Davidson diagonalization with overlap

---- Real-time Memory Report at c_bands before calling an iterative solver
           537 MiB given to the printing process from OS
             0 MiB allocation reported by mallinfo(arena+hblkhd)
          5788 MiB available memory on the node where the printing process lives
------------------
     ethr =  1.97E-07,  avg # of iterations =  1.4

     total cpu time spent up to now is      652.2 secs

     total energy              =    -169.81325106 Ry
     estimated scf accuracy    <       0.00000023 Ry

     iteration #  5     ecut=    80.00 Ry     beta= 0.70
     Davidson diagonalization with overlap

---- Real-time Memory Report at c_bands before calling an iterative solver
           537 MiB given to the printing process from OS
             0 MiB allocation reported by mallinfo(arena+hblkhd)
          5788 MiB available memory on the node where the printing process lives
------------------
     ethr =  9.59E-10,  avg # of iterations =  2.0

     total cpu time spent up to now is      652.6 secs

     End of self-consistent calculation

          k = 0.0000 0.0000 0.0000 (  3287 PWs)   bands (ev):

   -40.3442 -23.9482 -23.1741 -18.1777 -18.1777 -18.1776  -2.5971  -2.5971
    -2.5971  -0.5674  -0.5674  -0.5674  11.9244  15.0817  15.0817  17.5697
    17.5697  17.5697  22.0683  22.0683

     occupation numbers 
     1.0000   1.0000   1.0000   1.0000   1.0000   1.0000   1.0000   1.0000
     1.0000   1.0000   1.0000   1.0000   0.0000   0.0000   0.0000   0.0000
     0.0000   0.0000   0.0000   0.0000

          k =-0.1667 0.1667-0.1667 (  3329 PWs)   bands (ev):

   -40.3349 -23.9684 -23.2423 -18.1913 -18.1913 -18.1100  -2.4630  -2.4630
    -2.3614  -0.8849  -0.7011  -0.7010  12.6524  15.1361  15.1369  17.2655
    17.4869  17.4870  20.9315  22.7387

     occupation numbers 
     1.0000   1.0000   1.0000   1.0000   1.0000   1.0000   1.0000   1.0000
     1.0000   1.0000   1.0000   1.0000   0.0000   0.0000   0.0000   0.0000
     0.0000   0.0000   0.0000   0.0000

          k =-0.3333 0.3333-0.3333 (  3305 PWs)   bands (ev):

   -40.3161 -23.9546 -23.4403 -18.2183 -18.2183 -17.9590  -2.1442  -2.1441
    -1.9063  -1.4299  -1.0100  -1.0100  14.1230  15.2553  15.2566  16.7725
    17.3231  17.3231  19.4862  24.3555

     occupation numbers 
     1.0000   1.0000   1.0000   1.0000   1.0000   1.0000   1.0000   1.0000
     1.0000   1.0000   1.0000   1.0000   0.0000   0.0000   0.0000   0.0000
     0.0000   0.0000   0.0000   0.0000

          k = 0.5000-0.5000 0.5000 (  3316 PWs)   bands (ev):

   -40.3067 -23.8883 -23.6019 -18.2317 -18.2317 -17.8765  -1.9192  -1.9192
    -1.7246  -1.6327  -1.2258  -1.2258  15.3203  15.3203  15.5543  15.6148
    17.2412  17.2413  19.3437  25.4747

     occupation numbers 
     1.0000   1.0000   1.0000   1.0000   1.0000   1.0000   1.0000   1.0000
     1.0000   1.0000   1.0000   1.0000   0.0000   0.0000   0.0000   0.0000
     0.0000   0.0000   0.0000   0.0000

          k = 0.0000 0.3333 0.0000 (  3327 PWs)   bands (ev):

   -40.3318 -23.9838 -23.2529 -18.2111 -18.2111 -18.0600  -2.5091  -2.5091
    -2.0817  -1.3447  -0.5576  -0.5576  12.8871  14.9213  15.3468  17.1315
    17.4420  17.4423  21.6703  22.3818

     occupation numbers 
     1.0000   1.0000   1.0000   1.0000   1.0000   1.0000   1.0000   1.0000
     1.0000   1.0000   1.0000   1.0000   0.0000   0.0000   0.0000   0.0000
     0.0000   0.0000   0.0000   0.0000

          k =-0.1667 0.5000-0.1667 (  3328 PWs)   bands (ev):

   -40.3161 -23.9915 -23.3944 -18.2412 -18.2071 -17.9570  -2.3295  -2.3192
    -1.9615  -1.5178  -0.7245  -0.6972  13.8668  15.0838  15.5468  16.6148
    17.3116  17.4151  20.5255  23.1736

     occupation numbers 
     1.0000   1.0000   1.0000   1.0000   1.0000   1.0000   1.0000   1.0000
     1.0000   1.0000   1.0000   1.0000   0.0000   0.0000   0.0000   0.0000
     0.0000   0.0000   0.0000   0.0000

          k = 0.6667-0.3333 0.6667 (  3321 PWs)   bands (ev):

   -40.3036 -23.8953 -23.6213 -18.2514 -18.1649 -17.9102  -2.3480  -2.1095
    -2.0008  -1.0942  -1.0562  -0.9098  14.2935  15.5346  15.6823  16.2947
    17.2163  17.6679  19.6577  24.2488

     occupation numbers 
     1.0000   1.0000   1.0000   1.0000   1.0000   1.0000   1.0000   1.0000
     1.0000   1.0000   1.0000   1.0000   0.0000   0.0000   0.0000   0.0000
     0.0000   0.0000   0.0000   0.0000

          k = 0.5000-0.1667 0.5000 (  3334 PWs)   bands (ev):

   -40.3067 -23.9069 -23.5813 -18.2319 -18.1531 -17.9573  -2.4431  -1.9276
    -1.7733  -1.3821  -1.3663  -0.6582  14.2378  15.3249  15.6241  16.4560
    17.2537  17.6437  19.8236  22.9887

     occupation numbers 
     1.0000   1.0000   1.0000   1.0000   1.0000   1.0000   1.0000   1.0000
     1.0000   1.0000   1.0000   1.0000   0.0000   0.0000   0.0000   0.0000
     0.0000   0.0000   0.0000   0.0000

          k = 0.3333 0.0000 0.3333 (  3325 PWs)   bands (ev):

   -40.3224 -23.9754 -23.3558 -18.2018 -18.1894 -18.0406  -2.5040  -2.1514
    -1.9120  -1.4297  -1.0607  -0.5409  13.5290  15.1289  15.2951  16.8668
    17.3930  17.4458  20.6001  22.3145

     occupation numbers 
     1.0000   1.0000   1.0000   1.0000   1.0000   1.0000   1.0000   1.0000
     1.0000   1.0000   1.0000   1.0000   0.0000   0.0000   0.0000   0.0000
     0.0000   0.0000   0.0000   0.0000

          k = 0.0000 0.6667 0.0000 (  3347 PWs)   bands (ev):

   -40.3068 -24.0508 -23.4059 -18.2774 -18.2773 -17.8202  -2.6634  -2.2771
    -2.2771  -0.9392  -0.6058  -0.6058  13.7546  15.8486  15.9484  16.0725
    17.2467  17.2468  22.0374  22.9006

     occupation numbers 
     1.0000   1.0000   1.0000   1.0000   1.0000   1.0000   1.0000   1.0000
     1.0000   1.0000   1.0000   1.0000   0.0000   0.0000   0.0000   0.0000
     0.0000   0.0000   0.0000   0.0000

          k = 0.8333-0.1667 0.8333 (  3314 PWs)   bands (ev):

   -40.2974 -24.0091 -23.5437 -18.2907 -18.2315 -17.7934  -2.9667  -2.1892
    -2.0925  -0.7907  -0.7144  -0.5082  13.6787  15.6772  16.0186  16.4674
    17.1822  18.2950  20.9812  21.9843

     occupation numbers 
     1.0000   1.0000   1.0000   1.0000   1.0000   1.0000   1.0000   1.0000
     1.0000   1.0000   1.0000   1.0000   0.0000   0.0000   0.0000   0.0000
     0.0000   0.0000   0.0000   0.0000

          k = 0.6667-0.0000 0.6667 (  3318 PWs)   bands (ev):

   -40.2974 -23.8204 -23.7539 -18.2681 -18.0904 -17.9350  -2.7918  -2.1980
    -1.8243  -1.1935  -0.8848  -0.4574  13.8839  15.6863  15.7324  16.2622
    17.1774  19.0703  20.7355  20.8521

     occupation numbers 
     1.0000   1.0000   1.0000   1.0000   1.0000   1.0000   1.0000   1.0000
     1.0000   1.0000   1.0000   1.0000   0.0000   0.0000   0.0000   0.0000
     0.0000   0.0000   0.0000   0.0000

          k = 0.0000-1.0000 0.0000 (  3306 PWs)   bands (ev):

   -40.2943 -24.0826 -23.4803 -18.3101 -18.3101 -17.6975  -3.2445  -2.1205
    -2.1205  -0.6769  -0.6769  -0.2922  13.4311  15.4316  16.2973  17.1742
    17.1742  18.4233  20.5604  22.4341

     occupation numbers 
     1.0000   1.0000   1.0000   1.0000   1.0000   1.0000   1.0000   1.0000
     1.0000   1.0000   1.0000   1.0000   0.0000   0.0000   0.0000   0.0000
     0.0000   0.0000   0.0000   0.0000

          k = 0.6667-0.3333 1.0000 (  3317 PWs)   bands (ev):

   -40.3036 -23.9561 -23.5518 -18.2682 -18.1546 -17.9130  -2.4785  -2.4396
    -1.9092  -1.0864  -0.9528  -0.5582  13.9441  15.5695  15.8960  16.1344
    17.2416  17.8549  20.8065  22.2693

     occupation numbers 
     1.0000   1.0000   1.0000   1.0000   1.0000   1.0000   1.0000   1.0000
     1.0000   1.0000   1.0000   1.0000   0.0000   0.0000   0.0000   0.0000
     0.0000   0.0000   0.0000   0.0000

          k = 0.5000-0.1667 0.8333 (  3314 PWs)   bands (ev):

   -40.2974 -23.8224 -23.7518 -18.2862 -18.0442 -17.9632  -2.6148  -2.5167
    -1.5654  -1.3995  -0.6561  -0.5986  13.9392  15.6658  15.8396  16.0800
    17.2001  18.9477  20.1766  22.6433

     occupation numbers 
     1.0000   1.0000   1.0000   1.0000   1.0000   1.0000   1.0000   1.0000
     1.0000   1.0000   1.0000   1.0000   0.0000   0.0000   0.0000   0.0000
     0.0000   0.0000   0.0000   0.0000

          k =-0.3333-1.0000 0.0000 (  3322 PWs)   bands (ev):

   -40.2943 -23.9451 -23.6455 -18.3124 -18.1408 -17.8361  -2.9869  -2.3987
    -1.7904  -1.0714  -0.6144  -0.3594  13.7004  15.6201  15.9513  16.2632
    17.1943  20.0973  20.3186  21.3655

     occupation numbers 
     1.0000   1.0000   1.0000   1.0000   1.0000   1.0000   1.0000   1.0000
     1.0000   1.0000   1.0000   1.0000   0.0000   0.0000   0.0000   0.0000
     0.0000   0.0000   0.0000   0.0000

     highest occupied, lowest unoccupied level (ev):    -0.2922   11.9244

!    total energy              =    -169.81325111 Ry
     estimated scf accuracy    <          5.5E-09 Ry

     convergence has been achieved in   5 iterations

     Using ACE for calculation of exact exchange
     ACE projected onto    20 (nbndproj) and applied to    20 (nbnd) bands

     total energy              =    -169.81637566 Ry
     Harris-Foulkes estimate   =    -169.81637566 Ry
     est. exchange err (dexx)  =       0.00312454 Ry
     - averaged Fock potential =      29.55913075 Ry
     + Fock energy (ACE)       =     -14.81546357 Ry

     EXX: now go back to refine exchange calculation

     total cpu time spent up to now is     1329.0 secs

     Self-consistent Calculation

     iteration #  1     ecut=    80.00 Ry     beta= 0.70
     Davidson diagonalization with overlap

---- Real-time Memory Report at c_bands before calling an iterative solver
           537 MiB given to the printing process from OS
             0 MiB allocation reported by mallinfo(arena+hblkhd)
          5786 MiB available memory on the node where the printing process lives
------------------
     ethr =  9.59E-10,  avg # of iterations =  5.9

     total cpu time spent up to now is     1329.6 secs

     total energy              =    -169.81685944 Ry
     estimated scf accuracy    <       0.00013160 Ry

     iteration #  2     ecut=    80.00 Ry     beta= 0.70
     Davidson diagonalization with overlap

---- Real-time Memory Report at c_bands before calling an iterative solver
           537 MiB given to the printing process from OS
             0 MiB allocation reported by mallinfo(arena+hblkhd)
          5786 MiB available memory on the node where the printing process lives
------------------
     ethr =  5.48E-07,  avg # of iterations =  2.0

     total cpu time spent up to now is     1329.9 secs

     total energy              =    -169.81688405 Ry
     estimated scf accuracy    <       0.00003032 Ry

     iteration #  3     ecut=    80.00 Ry     beta= 0.70
     Davidson diagonalization with overlap

---- Real-time Memory Report at c_bands before calling an iterative solver
           537 MiB given to the printing process from OS
             0 MiB allocation reported by mallinfo(arena+hblkhd)
          5786 MiB available memory on the node where the printing process lives
------------------
     ethr =  1.26E-07,  avg # of iterations =  2.0

     total cpu time spent up to now is     1330.3 secs

     total energy              =    -169.81689217 Ry
     estimated scf accuracy    <       0.00000140 Ry

     iteration #  4     ecut=    80.00 Ry     beta= 0.70
     Davidson diagonalization with overlap

---- Real-time Memory Report at c_bands before calling an iterative solver
           537 MiB given to the printing process from OS
             0 MiB allocation reported by mallinfo(arena+hblkhd)
          5786 MiB available memory on the node where the printing process lives
------------------
     ethr =  5.82E-09,  avg # of iterations =  1.5

     total cpu time spent up to now is     1330.6 secs

     End of self-consistent calculation

          k = 0.0000 0.0000 0.0000 (  3287 PWs)   bands (ev):

   -40.3684 -23.9741 -23.2066 -18.1851 -18.1851 -18.1850  -2.5920  -2.5920
    -2.5920  -0.5933  -0.5933  -0.5933  12.0026  15.1000  15.1000  17.5863
    17.5863  17.5863  22.1056  22.1056

     occupation numbers 
     1.0000   1.0000   1.0000   1.0000   1.0000   1.0000   1.0000   1.0000
     1.0000   1.0000   1.0000   1.0000   0.0000   0.0000   0.0000   0.0000
     0.0000   0.0000   0.0000   0.0000

          k =-0.1667 0.1667-0.1667 (  3329 PWs)   bands (ev):

   -40.3592 -23.9930 -23.2741 -18.1983 -18.1983 -18.1187  -2.4597  -2.4597
    -2.3610  -0.9014  -0.7243  -0.7243  12.7203  15.1530  15.1530  17.2853
    17.5050  17.5050  20.9709  22.7723

     occupation numbers 
     1.0000   1.0000   1.0000   1.0000   1.0000   1.0000   1.0000   1.0000
     1.0000   1.0000   1.0000   1.0000   0.0000   0.0000   0.0000   0.0000
     0.0000   0.0000   0.0000   0.0000

          k =-0.3333 0.3333-0.3333 (  3305 PWs)   bands (ev):

   -40.3408 -23.9773 -23.4698 -18.2245 -18.2245 -17.9705  -2.1441  -2.1441
    -1.9145  -1.4350  -1.0292  -1.0292  14.1789  15.2695  15.2695  16.7995
    17.3439  17.3439  19.5244  24.3829

     occupation numbers 
     1.0000   1.0000   1.0000   1.0000   1.0000   1.0000   1.0000   1.0000
     1.0000   1.0000   1.0000   1.0000   0.0000   0.0000   0.0000   0.0000
     0.0000   0.0000   0.0000   0.0000

          k = 0.5000-0.5000 0.5000 (  3316 PWs)   bands (ev):

   -40.3316 -23.9098 -23.6304 -18.2375 -18.2375 -17.8895  -1.9192  -1.9192
    -1.7279  -1.6430  -1.2449  -1.2449  15.3323  15.3323  15.6034  15.6556
    17.2633  17.2633  19.3742  25.5067

     occupation numbers 
     1.0000   1.0000   1.0000   1.0000   1.0000   1.0000   1.0000   1.0000
     1.0000   1.0000   1.0000   1.0000   0.0000   0.0000   0.0000   0.0000
     0.0000   0.0000   0.0000   0.0000

          k = 0.0000 0.3333 0.0000 (  3327 PWs)   bands (ev):

   -40.3562 -24.0078 -23.2846 -18.2175 -18.2175 -18.0700  -2.5075  -2.5075
    -2.0818  -1.3548  -0.5819  -0.5818  12.9514  14.9412  15.3623  17.1509
    17.4617  17.4617  21.7044  22.4168

     occupation numbers 
     1.0000   1.0000   1.0000   1.0000   1.0000   1.0000   1.0000   1.0000
     1.0000   1.0000   1.0000   1.0000   0.0000   0.0000   0.0000   0.0000
     0.0000   0.0000   0.0000   0.0000

          k =-0.1667 0.5000-0.1667 (  3328 PWs)   bands (ev):

   -40.3409 -24.0140 -23.4243 -18.2467 -18.2134 -17.9690  -2.3312  -2.3216
    -1.9627  -1.5259  -0.7439  -0.7179  13.9136  15.1097  15.5599  16.6396
    17.3339  17.4369  20.5597  23.2050

     occupation numbers 
     1.0000   1.0000   1.0000   1.0000   1.0000   1.0000   1.0000   1.0000
     1.0000   1.0000   1.0000   1.0000   0.0000   0.0000   0.0000   0.0000
     0.0000   0.0000   0.0000   0.0000

          k = 0.6667-0.3333 0.6667 (  3321 PWs)   bands (ev):

   -40.3286 -23.9174 -23.6486 -18.2567 -18.1721 -17.9226  -2.3458  -2.1136
    -2.0061  -1.1099  -1.0723  -0.9260  14.3274  15.5451  15.7232  16.3217
    17.2396  17.6929  19.6888  24.2693

     occupation numbers 
     1.0000   1.0000   1.0000   1.0000   1.0000   1.0000   1.0000   1.0000
     1.0000   1.0000   1.0000   1.0000   0.0000   0.0000   0.0000   0.0000
     0.0000   0.0000   0.0000   0.0000

          k = 0.5000-0.1667 0.5000 (  3334 PWs)   bands (ev):

   -40.3316 -23.9296 -23.6086 -18.2377 -18.1605 -17.9687  -2.4436  -1.9290
    -1.7762  -1.3977  -1.3811  -0.6772  14.2821  15.3358  15.6510  16.4857
    17.2758  17.6676  19.8564  23.0167

     occupation numbers 
     1.0000   1.0000   1.0000   1.0000   1.0000   1.0000   1.0000   1.0000
     1.0000   1.0000   1.0000   1.0000   0.0000   0.0000   0.0000   0.0000
     0.0000   0.0000   0.0000   0.0000

          k = 0.3333 0.0000 0.3333 (  3325 PWs)   bands (ev):

   -40.3470 -23.9987 -23.3860 -18.2085 -18.1962 -18.0505  -2.5035  -2.1507
    -1.9183  -1.4366  -1.0790  -0.5637  13.5874  15.1423  15.3128  16.8908
    17.4124  17.4667  20.6361  22.3479

     occupation numbers 
     1.0000   1.0000   1.0000   1.0000   1.0000   1.0000   1.0000   1.0000
     1.0000   1.0000   1.0000   1.0000   0.0000   0.0000   0.0000   0.0000
     0.0000   0.0000   0.0000   0.0000

          k = 0.0000 0.6667 0.0000 (  3347 PWs)   bands (ev):

   -40.3317 -24.0716 -23.4361 -18.2818 -18.2817 -17.8352  -2.6540  -2.2845
    -2.2845  -0.9541  -0.6246  -0.6246  13.7870  15.8896  15.9580  16.1018
    17.2716  17.2716  22.0543  22.9339

     occupation numbers 
     1.0000   1.0000   1.0000   1.0000   1.0000   1.0000   1.0000   1.0000
     1.0000   1.0000   1.0000   1.0000   0.0000   0.0000   0.0000   0.0000
     0.0000   0.0000   0.0000   0.0000

          k = 0.8333-0.1667 0.8333 (  3314 PWs)   bands (ev):

   -40.3225 -24.0297 -23.5718 -18.2947 -18.2369 -17.8088  -2.9558  -2.1980
    -2.1038  -0.8050  -0.7306  -0.5302  13.7104  15.7124  16.0263  16.5049
    17.2081  18.3236  21.0061  22.0089

     occupation numbers 
     1.0000   1.0000   1.0000   1.0000   1.0000   1.0000   1.0000   1.0000
     1.0000   1.0000   1.0000   1.0000   0.0000   0.0000   0.0000   0.0000
     0.0000   0.0000   0.0000   0.0000

          k = 0.6667-0.0000 0.6667 (  3318 PWs)   bands (ev):

   -40.3225 -23.8436 -23.7787 -18.2729 -18.0988 -17.9472  -2.7875  -2.2005
    -1.8374  -1.2024  -0.9040  -0.4781  13.9201  15.6945  15.7647  16.2998
    17.2021  19.0917  20.7643  20.8827

     occupation numbers 
     1.0000   1.0000   1.0000   1.0000   1.0000   1.0000   1.0000   1.0000
     1.0000   1.0000   1.0000   1.0000   0.0000   0.0000   0.0000   0.0000
     0.0000   0.0000   0.0000   0.0000

          k = 0.0000-1.0000 0.0000 (  3306 PWs)   bands (ev):

   -40.3194 -24.1019 -23.5098 -18.3136 -18.3136 -17.7150  -3.2287  -2.1342
    -2.1342  -0.6909  -0.6909  -0.3178  13.4675  15.4696  16.3040  17.2013
    17.2013  18.4665  20.5849  22.4538

     occupation numbers 
     1.0000   1.0000   1.0000   1.0000   1.0000   1.0000   1.0000   1.0000
     1.0000   1.0000   1.0000   1.0000   0.0000   0.0000   0.0000   0.0000
     0.0000   0.0000   0.0000   0.0000

          k = 0.6667-0.3333 1.0000 (  3317 PWs)   bands (ev):

   -40.3286 -23.9781 -23.5794 -18.2728 -18.1619 -17.9257  -2.4736  -2.4435
    -1.9172  -1.1016  -0.9689  -0.5770  13.9793  15.5890  15.9202  16.1674
    17.2659  17.8791  20.8344  22.2999

     occupation numbers 
     1.0000   1.0000   1.0000   1.0000   1.0000   1.0000   1.0000   1.0000
     1.0000   1.0000   1.0000   1.0000   0.0000   0.0000   0.0000   0.0000
     0.0000   0.0000   0.0000   0.0000

          k = 0.5000-0.1667 0.8333 (  3314 PWs)   bands (ev):

   -40.3225 -23.8456 -23.7767 -18.2903 -18.0541 -17.9745  -2.6145  -2.5152
    -1.5749  -1.4146  -0.6710  -0.6210  13.9738  15.6778  15.8741  16.1145
    17.2256  18.9700  20.2068  22.6666

     occupation numbers 
     1.0000   1.0000   1.0000   1.0000   1.0000   1.0000   1.0000   1.0000
     1.0000   1.0000   1.0000   1.0000   0.0000   0.0000   0.0000   0.0000
     0.0000   0.0000   0.0000   0.0000

          k =-0.3333-1.0000 0.0000 (  3322 PWs)   bands (ev):

   -40.3194 -23.9665 -23.6719 -18.3158 -18.1483 -17.8505  -2.9782  -2.4042
    -1.8040  -1.0850  -0.6282  -0.3849  13.7324  15.6537  15.9591  16.3018
    17.2213  20.1282  20.3351  21.3970

     occupation numbers 
     1.0000   1.0000   1.0000   1.0000   1.0000   1.0000   1.0000   1.0000
     1.0000   1.0000   1.0000   1.0000   0.0000   0.0000   0.0000   0.0000
     0.0000   0.0000   0.0000   0.0000

     highest occupied, lowest unoccupied level (ev):    -0.3178   12.0026

!    total energy              =    -169.81689235 Ry
     estimated scf accuracy    <          7.8E-09 Ry

     convergence has been achieved in   4 iterations

     Using ACE for calculation of exact exchange
     ACE projected onto    20 (nbndproj) and applied to    20 (nbnd) bands

     total energy              =    -169.81698116 Ry
     Harris-Foulkes estimate   =    -169.81698117 Ry
     est. exchange err (dexx)  =       0.00008881 Ry
     - averaged Fock potential =      29.64348147 Ry
     + Fock energy (ACE)       =     -14.82810671 Ry

     EXX: now go back to refine exchange calculation

     total cpu time spent up to now is     1990.3 secs

     Self-consistent Calculation

     iteration #  1     ecut=    80.00 Ry     beta= 0.70
     Davidson diagonalization with overlap

---- Real-time Memory Report at c_bands before calling an iterative solver
           537 MiB given to the printing process from OS
             0 MiB allocation reported by mallinfo(arena+hblkhd)
          5781 MiB available memory on the node where the printing process lives
------------------
     ethr =  5.82E-09,  avg # of iterations =  3.8

     total cpu time spent up to now is     1990.8 secs

     total energy              =    -169.81699593 Ry
     estimated scf accuracy    <       0.00000390 Ry

     iteration #  2     ecut=    80.00 Ry     beta= 0.70
     Davidson diagonalization with overlap

---- Real-time Memory Report at c_bands before calling an iterative solver
           537 MiB given to the printing process from OS
             0 MiB allocation reported by mallinfo(arena+hblkhd)
          5785 MiB available memory on the node where the printing process lives
------------------
     ethr =  1.63E-08,  avg # of iterations =  2.0

     total cpu time spent up to now is     1991.2 secs

     total energy              =    -169.81699657 Ry
     estimated scf accuracy    <       0.00000081 Ry

     iteration #  3     ecut=    80.00 Ry     beta= 0.70
     Davidson diagonalization with overlap

---- Real-time Memory Report at c_bands before calling an iterative solver
           537 MiB given to the printing process from OS
             0 MiB allocation reported by mallinfo(arena+hblkhd)
          5785 MiB available memory on the node where the printing process lives
------------------
     ethr =  3.37E-09,  avg # of iterations =  2.0

     total cpu time spent up to now is     1991.6 secs

     total energy              =    -169.81699679 Ry
     estimated scf accuracy    <       0.00000005 Ry

     iteration #  4     ecut=    80.00 Ry     beta= 0.70
     Davidson diagonalization with overlap

---- Real-time Memory Report at c_bands before calling an iterative solver
           537 MiB given to the printing process from OS
             0 MiB allocation reported by mallinfo(arena+hblkhd)
          5784 MiB available memory on the node where the printing process lives
------------------
     ethr =  2.11E-10,  avg # of iterations =  1.9

     total cpu time spent up to now is     1991.9 secs

     End of self-consistent calculation

          k = 0.0000 0.0000 0.0000 (  3287 PWs)   bands (ev):

   -40.3721 -23.9750 -23.2085 -18.1865 -18.1865 -18.1865  -2.5902  -2.5902
    -2.5902  -0.5970  -0.5970  -0.5970  12.0182  15.1051  15.1051  17.5902
    17.5902  17.5902  22.1130  22.1130

     occupation numbers 
     1.0000   1.0000   1.0000   1.0000   1.0000   1.0000   1.0000   1.0000
     1.0000   1.0000   1.0000   1.0000   0.0000   0.0000   0.0000   0.0000
     0.0000   0.0000   0.0000   0.0000

          k =-0.1667 0.1667-0.1667 (  3329 PWs)   bands (ev):

   -40.3630 -23.9937 -23.2758 -18.1996 -18.1996 -18.1203  -2.4582  -2.4582
    -2.3600  -0.9033  -0.7275  -0.7275  12.7340  15.1578  15.1578  17.2899
    17.5092  17.5092  20.9791  22.7791

     occupation numbers 
     1.0000   1.0000   1.0000   1.0000   1.0000   1.0000   1.0000   1.0000
     1.0000   1.0000   1.0000   1.0000   0.0000   0.0000   0.0000   0.0000
     0.0000   0.0000   0.0000   0.0000

          k =-0.3333 0.3333-0.3333 (  3305 PWs)   bands (ev):

[...]

     occupation numbers 
     1.0000   1.0000   1.0000   1.0000   1.0000   1.0000   1.0000   1.0000
     1.0000   1.0000   1.0000   1.0000   0.0000   0.0000   0.0000   0.0000
     0.0000   0.0000   0.0000   0.0000

          k =-0.3333 0.3333-0.3333 (  3305 PWs)   bands (ev):

   -40.3451 -23.9777 -23.4713 -18.2258 -18.2258 -17.9726  -2.1433  -2.1433
    -1.9151  -1.4351  -1.0324  -1.0324  14.1926  15.2747  15.2747  16.8067
    17.3496  17.3496  19.5342  24.3899

     occupation numbers 
     1.0000   1.0000   1.0000   1.0000   1.0000   1.0000   1.0000   1.0000
     1.0000   1.0000   1.0000   1.0000   0.0000   0.0000   0.0000   0.0000
     0.0000   0.0000   0.0000   0.0000

          k = 0.5000-0.5000 0.5000 (  3316 PWs)   bands (ev):

   -40.3359 -23.9100 -23.6316 -18.2387 -18.2387 -17.8918  -1.9183  -1.9183
    -1.7278  -1.6437  -1.2482  -1.2482  15.3372  15.3372  15.6156  15.6658
    17.2693  17.2693  19.3821  25.5143

     occupation numbers 
     1.0000   1.0000   1.0000   1.0000   1.0000   1.0000   1.0000   1.0000
     1.0000   1.0000   1.0000   1.0000   0.0000   0.0000   0.0000   0.0000
     0.0000   0.0000   0.0000   0.0000

          k = 0.0000 0.3333 0.0000 (  3327 PWs)   bands (ev):

   -40.3604 -24.0084 -23.2864 -18.2188 -18.2188 -18.0720  -2.5064  -2.5064
    -2.0810  -1.3558  -0.5861  -0.5861  12.9669  14.9475  15.3679  17.1566
    17.4672  17.4672  21.7133  22.4252

     occupation numbers 
     1.0000   1.0000   1.0000   1.0000   1.0000   1.0000   1.0000   1.0000
     1.0000   1.0000   1.0000   1.0000   0.0000   0.0000   0.0000   0.0000
     0.0000   0.0000   0.0000   0.0000

          k =-0.1667 0.5000-0.1667 (  3328 PWs)   bands (ev):

   -40.3452 -24.0143 -23.4258 -18.2478 -18.2147 -17.9712  -2.3306  -2.3213
    -1.9619  -1.5266  -0.7472  -0.7214  13.9251  15.1176  15.5648  16.6467
    17.3399  17.4428  20.5686  23.2128

     occupation numbers 
     1.0000   1.0000   1.0000   1.0000   1.0000   1.0000   1.0000   1.0000
     1.0000   1.0000   1.0000   1.0000   0.0000   0.0000   0.0000   0.0000
     0.0000   0.0000   0.0000   0.0000

          k = 0.6667-0.3333 0.6667 (  3321 PWs)   bands (ev):

   -40.3329 -23.9177 -23.6496 -18.2578 -18.1735 -17.9249  -2.3441  -2.1136
    -2.0064  -1.1121  -1.0749  -0.9286  14.3362  15.5495  15.7334  16.3295
    17.2459  17.6997  19.6967  24.2746

     occupation numbers 
     1.0000   1.0000   1.0000   1.0000   1.0000   1.0000   1.0000   1.0000
     1.0000   1.0000   1.0000   1.0000   0.0000   0.0000   0.0000   0.0000
     0.0000   0.0000   0.0000   0.0000

          k = 0.5000-0.1667 0.5000 (  3334 PWs)   bands (ev):

   -40.3360 -23.9299 -23.6097 -18.2390 -18.1620 -17.9707  -2.4425  -1.9283
    -1.7760  -1.4001  -1.3831  -0.6804  14.2930  15.3405  15.6588  16.4935
    17.2818  17.6740  19.8650  23.0241

     occupation numbers 
     1.0000   1.0000   1.0000   1.0000   1.0000   1.0000   1.0000   1.0000
     1.0000   1.0000   1.0000   1.0000   0.0000   0.0000   0.0000   0.0000
     0.0000   0.0000   0.0000   0.0000

          k = 0.3333 0.0000 0.3333 (  3325 PWs)   bands (ev):

   -40.3512 -23.9992 -23.3876 -18.2099 -18.1976 -18.0524  -2.5024  -2.1497
    -1.9187  -1.4370  -1.0819  -0.5677  13.6016  15.1476  15.3187  16.8974
    17.4178  17.4724  20.6453  22.3563

     occupation numbers 
     1.0000   1.0000   1.0000   1.0000   1.0000   1.0000   1.0000   1.0000
     1.0000   1.0000   1.0000   1.0000   0.0000   0.0000   0.0000   0.0000
     0.0000   0.0000   0.0000   0.0000

          k = 0.0000 0.6667 0.0000 (  3347 PWs)   bands (ev):

   -40.3360 -24.0717 -23.4376 -18.2827 -18.2827 -17.8380  -2.6507  -2.2851
    -2.2851  -0.9563  -0.6278  -0.6278  13.7952  15.9004  15.9620  16.1103
    17.2781  17.2781  22.0586  22.9420

     occupation numbers 
     1.0000   1.0000   1.0000   1.0000   1.0000   1.0000   1.0000   1.0000
     1.0000   1.0000   1.0000   1.0000   0.0000   0.0000   0.0000   0.0000
     0.0000   0.0000   0.0000   0.0000

          k = 0.8333-0.1667 0.8333 (  3314 PWs)   bands (ev):

   -40.3269 -24.0297 -23.5730 -18.2956 -18.2379 -17.8116  -2.9521  -2.1988
    -2.1053  -0.8072  -0.7332  -0.5338  13.7185  15.7223  16.0298  16.5143
    17.2148  18.3312  21.0130  22.0153

     occupation numbers 
     1.0000   1.0000   1.0000   1.0000   1.0000   1.0000   1.0000   1.0000
     1.0000   1.0000   1.0000   1.0000   0.0000   0.0000   0.0000   0.0000
     0.0000   0.0000   0.0000   0.0000

          k = 0.6667-0.0000 0.6667 (  3318 PWs)   bands (ev):

   -40.3268 -23.8441 -23.7794 -18.2739 -18.1003 -17.9495  -2.7854  -2.2000
    -1.8392  -1.2035  -0.9072  -0.4816  13.9292  15.6984  15.7738  16.3091
    17.2087  19.0980  20.7718  20.8905

     occupation numbers 
     1.0000   1.0000   1.0000   1.0000   1.0000   1.0000   1.0000   1.0000
     1.0000   1.0000   1.0000   1.0000   0.0000   0.0000   0.0000   0.0000
     0.0000   0.0000   0.0000   0.0000

          k = 0.0000-1.0000 0.0000 (  3306 PWs)   bands (ev):

   -40.3238 -24.1017 -23.5111 -18.3144 -18.3144 -17.7181  -3.2239  -2.1362
    -2.1362  -0.6931  -0.6931  -0.3221  13.4758  15.4802  16.3070  17.2083
    17.2083  18.4772  20.5915  22.4596

     occupation numbers 
     1.0000   1.0000   1.0000   1.0000   1.0000   1.0000   1.0000   1.0000
     1.0000   1.0000   1.0000   1.0000   0.0000   0.0000   0.0000   0.0000
     0.0000   0.0000   0.0000   0.0000

          k = 0.6667-0.3333 1.0000 (  3317 PWs)   bands (ev):

   -40.3330 -23.9783 -23.5805 -18.2739 -18.1633 -17.9280  -2.4712  -2.4434
    -1.9180  -1.1040  -0.9713  -0.5802  13.9883  15.5953  15.9275  16.1762
    17.2723  17.8856  20.8420  22.3077

     occupation numbers 
     1.0000   1.0000   1.0000   1.0000   1.0000   1.0000   1.0000   1.0000
     1.0000   1.0000   1.0000   1.0000   0.0000   0.0000   0.0000   0.0000
     0.0000   0.0000   0.0000   0.0000

          k = 0.5000-0.1667 0.8333 (  3314 PWs)   bands (ev):

   -40.3268 -23.8460 -23.7774 -18.2912 -18.0559 -17.9766  -2.6136  -2.5134
    -1.5760  -1.4169  -0.6733  -0.6247  13.9822  15.6824  15.8835  16.1235
    17.2323  18.9766  20.2144  22.6730

     occupation numbers 
     1.0000   1.0000   1.0000   1.0000   1.0000   1.0000   1.0000   1.0000
     1.0000   1.0000   1.0000   1.0000   0.0000   0.0000   0.0000   0.0000
     0.0000   0.0000   0.0000   0.0000

          k =-0.3333-1.0000 0.0000 (  3322 PWs)   bands (ev):

   -40.3238 -23.9667 -23.6728 -18.3165 -18.1498 -17.8531  -2.9752  -2.4042
    -1.8059  -1.0870  -0.6303  -0.3892  13.7403  15.6638  15.9627  16.3114
    17.2283  20.1360  20.3409  21.4045

     occupation numbers 
     1.0000   1.0000   1.0000   1.0000   1.0000   1.0000   1.0000   1.0000
     1.0000   1.0000   1.0000   1.0000   0.0000   0.0000   0.0000   0.0000
     0.0000   0.0000   0.0000   0.0000

     highest occupied, lowest unoccupied level (ev):    -0.3221   12.0213

!    total energy              =    -169.81700013 Ry
     estimated scf accuracy    <          1.9E-09 Ry

     convergence has been achieved in   3 iterations

     Using ACE for calculation of exact exchange
     ACE projected onto    20 (nbndproj) and applied to    20 (nbnd) bands

     total energy              =    -169.81700023 Ry
     Harris-Foulkes estimate   =    -169.81700023 Ry
     est. exchange err (dexx)  =       0.00000010 Ry
     - averaged Fock potential =      29.66139146 Ry
     + Fock energy (ACE)       =     -14.83093378 Ry

     EXX: now go back to refine exchange calculation

     total cpu time spent up to now is     3196.0 secs

     Self-consistent Calculation

     iteration #  1     ecut=    80.00 Ry     beta= 0.70
     Davidson diagonalization with overlap

---- Real-time Memory Report at c_bands before calling an iterative solver
           537 MiB given to the printing process from OS
             0 MiB allocation reported by mallinfo(arena+hblkhd)
          5786 MiB available memory on the node where the printing process lives
------------------
     ethr =  9.90E-11,  avg # of iterations =  2.0

     total cpu time spent up to now is     3196.4 secs

     End of self-consistent calculation

          k = 0.0000 0.0000 0.0000 (  3287 PWs)   bands (ev):

   -40.3729 -23.9747 -23.2084 -18.1868 -18.1868 -18.1868  -2.5900  -2.5900
    -2.5900  -0.5980  -0.5980  -0.5980  12.0219  15.1063  15.1063  17.5911
    17.5911  17.5911  22.1146  22.1146

     occupation numbers 
     1.0000   1.0000   1.0000   1.0000   1.0000   1.0000   1.0000   1.0000
     1.0000   1.0000   1.0000   1.0000   0.0000   0.0000   0.0000   0.0000
     0.0000   0.0000   0.0000   0.0000

          k =-0.1667 0.1667-0.1667 (  3329 PWs)   bands (ev):

   -40.3638 -23.9934 -23.2757 -18.2000 -18.2000 -18.1206  -2.4582  -2.4582
    -2.3600  -0.9039  -0.7284  -0.7284  12.7372  15.1590  15.1590  17.2910
    17.5102  17.5102  20.9809  22.7807

     occupation numbers 
     1.0000   1.0000   1.0000   1.0000   1.0000   1.0000   1.0000   1.0000
     1.0000   1.0000   1.0000   1.0000   0.0000   0.0000   0.0000   0.0000
     0.0000   0.0000   0.0000   0.0000

          k =-0.3333 0.3333-0.3333 (  3305 PWs)   bands (ev):

   -40.3455 -23.9774 -23.4711 -18.2260 -18.2260 -17.9728  -2.1432  -2.1432
    -1.9151  -1.4350  -1.0325  -1.0325  14.1930  15.2748  15.2748  16.8069
    17.3497  17.3497  19.5345  24.3901

     occupation numbers 
     1.0000   1.0000   1.0000   1.0000   1.0000   1.0000   1.0000   1.0000
     1.0000   1.0000   1.0000   1.0000   0.0000   0.0000   0.0000   0.0000
     0.0000   0.0000   0.0000   0.0000

          k = 0.5000-0.5000 0.5000 (  3316 PWs)   bands (ev):

   -40.3363 -23.9098 -23.6314 -18.2390 -18.2390 -17.8920  -1.9182  -1.9182
    -1.7277  -1.6437  -1.2482  -1.2482  15.3373  15.3373  15.6160  15.6661
    17.2694  17.2694  19.3823  25.5145

     occupation numbers 
     1.0000   1.0000   1.0000   1.0000   1.0000   1.0000   1.0000   1.0000
     1.0000   1.0000   1.0000   1.0000   0.0000   0.0000   0.0000   0.0000
     0.0000   0.0000   0.0000   0.0000

          k = 0.0000 0.3333 0.0000 (  3327 PWs)   bands (ev):

   -40.3607 -24.0082 -23.2862 -18.2190 -18.2190 -18.0722  -2.5063  -2.5063
    -2.0809  -1.3558  -0.5862  -0.5862  12.9674  14.9476  15.3680  17.1567
    17.4673  17.4673  21.7135  22.4255

     occupation numbers 
     1.0000   1.0000   1.0000   1.0000   1.0000   1.0000   1.0000   1.0000
     1.0000   1.0000   1.0000   1.0000   0.0000   0.0000   0.0000   0.0000
     0.0000   0.0000   0.0000   0.0000

          k =-0.1667 0.5000-0.1667 (  3328 PWs)   bands (ev):

   -40.3455 -24.0141 -23.4256 -18.2480 -18.2149 -17.9714  -2.3306  -2.3212
    -1.9618  -1.5266  -0.7472  -0.7215  13.9255  15.1179  15.5649  16.6468
    17.3400  17.4429  20.5689  23.2130

     occupation numbers 
     1.0000   1.0000   1.0000   1.0000   1.0000   1.0000   1.0000   1.0000
     1.0000   1.0000   1.0000   1.0000   0.0000   0.0000   0.0000   0.0000
     0.0000   0.0000   0.0000   0.0000

          k = 0.6667-0.3333 0.6667 (  3321 PWs)   bands (ev):

   -40.3333 -23.9175 -23.6494 -18.2580 -18.1737 -17.9251  -2.3440  -2.1136
    -2.0063  -1.1121  -1.0749  -0.9287  14.3365  15.5496  15.7336  16.3297
    17.2460  17.6999  19.6969  24.2747

     occupation numbers 
     1.0000   1.0000   1.0000   1.0000   1.0000   1.0000   1.0000   1.0000
     1.0000   1.0000   1.0000   1.0000   0.0000   0.0000   0.0000   0.0000
     0.0000   0.0000   0.0000   0.0000

          k = 0.5000-0.1667 0.5000 (  3334 PWs)   bands (ev):

   -40.3363 -23.9297 -23.6095 -18.2392 -18.1622 -17.9709  -2.4425  -1.9283
    -1.7760  -1.4001  -1.3831  -0.6804  14.2933  15.3406  15.6589  16.4937
    17.2819  17.6742  19.8652  23.0243

     occupation numbers 
     1.0000   1.0000   1.0000   1.0000   1.0000   1.0000   1.0000   1.0000
     1.0000   1.0000   1.0000   1.0000   0.0000   0.0000   0.0000   0.0000
     0.0000   0.0000   0.0000   0.0000

          k = 0.3333 0.0000 0.3333 (  3325 PWs)   bands (ev):

   -40.3516 -23.9990 -23.3874 -18.2102 -18.1978 -18.0526  -2.5023  -2.1497
    -1.9187  -1.4369  -1.0819  -0.5677  13.6020  15.1477  15.3188  16.8976
    17.4179  17.4725  20.6456  22.3566

     occupation numbers 
     1.0000   1.0000   1.0000   1.0000   1.0000   1.0000   1.0000   1.0000
     1.0000   1.0000   1.0000   1.0000   0.0000   0.0000   0.0000   0.0000
     0.0000   0.0000   0.0000   0.0000

          k = 0.0000 0.6667 0.0000 (  3347 PWs)   bands (ev):

   -40.3364 -24.0715 -23.4374 -18.2829 -18.2829 -17.8382  -2.6505  -2.2851
    -2.2851  -0.9563  -0.6278  -0.6278  13.7954  15.9008  15.9620  16.1105
    17.2783  17.2783  22.0586  22.9423

     occupation numbers 
     1.0000   1.0000   1.0000   1.0000   1.0000   1.0000   1.0000   1.0000
     1.0000   1.0000   1.0000   1.0000   0.0000   0.0000   0.0000   0.0000
     0.0000   0.0000   0.0000   0.0000

          k = 0.8333-0.1667 0.8333 (  3314 PWs)   bands (ev):

   -40.3272 -24.0295 -23.5728 -18.2958 -18.2381 -17.8119  -2.9520  -2.1988
    -2.1053  -0.8072  -0.7332  -0.5338  13.7187  15.7226  16.0298  16.5145
    17.2150  18.3314  21.0132  22.0155

     occupation numbers 
     1.0000   1.0000   1.0000   1.0000   1.0000   1.0000   1.0000   1.0000
     1.0000   1.0000   1.0000   1.0000   0.0000   0.0000   0.0000   0.0000
     0.0000   0.0000   0.0000   0.0000

          k = 0.6667-0.0000 0.6667 (  3318 PWs)   bands (ev):

   -40.3272 -23.8439 -23.7791 -18.2741 -18.1005 -17.9497  -2.7853  -2.1999
    -1.8392  -1.2035  -0.9072  -0.4816  13.9295  15.6985  15.7741  16.3093
    17.2088  19.0981  20.7721  20.8907

     occupation numbers 
     1.0000   1.0000   1.0000   1.0000   1.0000   1.0000   1.0000   1.0000
     1.0000   1.0000   1.0000   1.0000   0.0000   0.0000   0.0000   0.0000
     0.0000   0.0000   0.0000   0.0000

          k = 0.0000-1.0000 0.0000 (  3306 PWs)   bands (ev):

   -40.3242 -24.1015 -23.5109 -18.3146 -18.3146 -17.7183  -3.2237  -2.1362
    -2.1362  -0.6931  -0.6931  -0.3221  13.4760  15.4805  16.3070  17.2084
    17.2084  18.4775  20.5917  22.4598

     occupation numbers 
     1.0000   1.0000   1.0000   1.0000   1.0000   1.0000   1.0000   1.0000
     1.0000   1.0000   1.0000   1.0000   0.0000   0.0000   0.0000   0.0000
     0.0000   0.0000   0.0000   0.0000

          k = 0.6667-0.3333 1.0000 (  3317 PWs)   bands (ev):

   -40.3333 -23.9781 -23.5803 -18.2741 -18.1635 -17.9282  -2.4711  -2.4434
    -1.9180  -1.1040  -0.9713  -0.5802  13.9886  15.5955  15.9277  16.1764
    17.2724  17.8857  20.8422  22.3080

     occupation numbers 
     1.0000   1.0000   1.0000   1.0000   1.0000   1.0000   1.0000   1.0000
     1.0000   1.0000   1.0000   1.0000   0.0000   0.0000   0.0000   0.0000
     0.0000   0.0000   0.0000   0.0000

          k = 0.5000-0.1667 0.8333 (  3314 PWs)   bands (ev):

   -40.3272 -23.8458 -23.7772 -18.2914 -18.0562 -17.9768  -2.6135  -2.5133
    -1.5760  -1.4169  -0.6734  -0.6248  13.9825  15.6825  15.8838  16.1237
    17.2324  18.9768  20.2146  22.6731

     occupation numbers 
     1.0000   1.0000   1.0000   1.0000   1.0000   1.0000   1.0000   1.0000
     1.0000   1.0000   1.0000   1.0000   0.0000   0.0000   0.0000   0.0000
     0.0000   0.0000   0.0000   0.0000

          k =-0.3333-1.0000 0.0000 (  3322 PWs)   bands (ev):

   -40.3242 -23.9665 -23.6726 -18.3167 -18.1500 -17.8533  -2.9751  -2.4041
    -1.8059  -1.0871  -0.6303  -0.3893  13.7405  15.6640  15.9627  16.3116
    17.2284  20.1363  20.3410  21.4048

     occupation numbers 
     1.0000   1.0000   1.0000   1.0000   1.0000   1.0000   1.0000   1.0000
     1.0000   1.0000   1.0000   1.0000   0.0000   0.0000   0.0000   0.0000
     0.0000   0.0000   0.0000   0.0000

     highest occupied, lowest unoccupied level (ev):    -0.3221   12.0219

!    total energy              =    -169.81700025 Ry
     estimated scf accuracy    <          2.7E-09 Ry

     convergence has been achieved in   1 iterations

     Using ACE for calculation of exact exchange
     ACE projected onto    20 (nbndproj) and applied to    20 (nbnd) bands

!!   total energy              =    -169.81700025 Ry
     Harris-Foulkes estimate   =    -169.81700025 Ry
     est. exchange err (dexx)  =          3.3E-09 Ry
     - averaged Fock potential =      29.66194752 Ry
     + Fock energy (ACE)       =     -14.83101374 Ry

     EXX self-consistency reached

     Writing all to output data dir ./out6/caf26.save/ :
     XML data file, charge density, pseudopotentials, collected wavefunctions

     init_run     :      0.21s CPU      0.21s WALL (       1 calls)
     electrons    :     10.87s CPU     11.11s WALL (       6 calls)

     Called by init_run:
     aceinit0     :      0.00s CPU      0.00s WALL (       1 calls)
     wfcinit      :      0.10s CPU      0.10s WALL (       1 calls)
     wfcinit:wfcr :      0.09s CPU      0.09s WALL (      16 calls)
     potinit      :      0.01s CPU      0.01s WALL (       1 calls)
     hinit0       :      0.08s CPU      0.08s WALL (       1 calls)

     Called by electrons:
     c_bands      :      9.25s CPU      9.46s WALL (      25 calls)
     sum_band     :      1.38s CPU      1.40s WALL (      25 calls)
     v_of_rho     :      0.22s CPU      0.23s WALL (      26 calls)
     v_h          :      0.01s CPU      0.01s WALL (      26 calls)
     v_xc         :      0.22s CPU      0.22s WALL (      26 calls)
     mix_rho      :      0.01s CPU      0.01s WALL (      25 calls)

     Called by c_bands:
     init_us_2    :      0.09s CPU      0.09s WALL (     816 calls)
     cegterg      :      9.06s CPU      9.27s WALL (     400 calls)

     Called by sum_band:
     sum_band:wei :      0.00s CPU      0.00s WALL (      25 calls)
     sum_band:loo :      1.36s CPU      1.38s WALL (      25 calls)
     sum_band:buf :      0.00s CPU      0.01s WALL (     400 calls)
     sum_band:ini :      0.04s CPU      0.04s WALL (     400 calls)

     Called by *egterg:
     cdiaghg      :      0.74s CPU      0.77s WALL (    1415 calls)
     cegterg:over :      0.30s CPU      0.31s WALL (    1111 calls)
     cegterg:upda :      0.08s CPU      0.08s WALL (    1111 calls)
     cegterg:last :      0.12s CPU      0.12s WALL (     951 calls)
     h_psi        :      7.56s CPU      7.72s WALL (    1527 calls)
     g_psi        :      0.05s CPU      0.05s WALL (    1111 calls)

     Called by h_psi:
     h_psi:calbec :      0.27s CPU      0.28s WALL (    1527 calls)
     vloc_psi     :      6.99s CPU      7.14s WALL (    1527 calls)
                                        0.00s GPU  (    1527 calls)
     add_vuspsi   :      0.10s CPU      0.10s WALL (    1527 calls)

     General routines
     calbec       :      0.49s CPU      0.54s WALL (    2974 calls)
     fft          :      0.16s CPU      0.16s WALL (     253 calls)
     ffts         :      0.01s CPU      0.01s WALL (      25 calls)
     fftw         :      7.84s CPU      7.99s WALL (   53946 calls)
     fftc         :   3250.64s CPU   3290.94s WALL (16588800 calls)
     fftcw        :      0.96s CPU      1.15s WALL (    5760 calls)

     Parallel routines

     EXX routines
     exx_grid     :      0.01s CPU      0.01s WALL (       1 calls)
     exxinit      :     14.79s CPU     20.80s WALL (       6 calls)
     vexx         :   3785.63s CPU   3832.41s WALL (      96 calls)
     matcalc      :      0.22s CPU      0.26s WALL (    1447 calls)
     aceupdate    :      0.00s CPU      0.00s WALL (      96 calls)
     vexxace      :      0.23s CPU      0.23s WALL (    1175 calls)
     aceinit      :   3785.68s CPU   3832.50s WALL (      96 calls)

     PWSCF        :      1h 3m CPU      1h 4m WALL


   This run was terminated on:   6:13:27   2Jul2026            

=------------------------------------------------------------------------------=
   JOB DONE.
=------------------------------------------------------------------------------=
Note: The following floating-point exceptions are signalling: IEEE_DENORMAL
Note: The following floating-point exceptions are signalling: IEEE_DENORMAL
Note: The following floating-point exceptions are signalling: IEEE_DENORMAL
