
     Program PWSCF v.7.5 starts on  1Jul2026 at  6:20:48 

     This program is part of the open-source Quantum ESPRESSO suite
     for quantum simulation of materials; please cite
         "P. Giannozzi et al., J. Phys.:Condens. Matter 21 395502 (2009);
         "P. Giannozzi et al., J. Phys.:Condens. Matter 29 465901 (2017);
         "P. Giannozzi et al., J. Chem. Phys. 152 154105 (2020);
          URL http://www.quantum-espresso.org", 
     in publications or presentations arising from this work. More details at
     http://www.quantum-espresso.org/quote

     Parallel version (MPI & OpenMP), running on      16 processor cores
     Number of MPI processes:                16
     Threads/MPI process:                     1

     MPI processes distributed on     1 nodes
     13994 MiB available memory on the printing compute node when the environment starts

     Reading input from mgo.dm.in

     Current dimensions of program PWSCF are:
     Max number of different atomic species (ntypx) = 10
     Max number of k-points (npk) =  40000
     Max angular momentum in pseudopotentials (lmaxx) =  4

     IMPORTANT: XC functional enforced from input :
     Exchange-correlation= HSE
                           (   1   4  12   4   0   0   0)
     EXX-fraction              =        0.25
     Any further DFT definition will be discarded
     Please, verify this is what you really want

     EXX Screening parameter changed:    2.1620000
     EXX fraction changed:   1.00
     DD-RSH-CAM (LMODELHF) semilocal: AEXX, BEXX =   0.3235  1.0000
     DD-RSH-CAM (LMODELHF) enabled
     AEXX =  0.3235   BEXX =  1.0000   mu(bohr^-1) =  2.1620

     R & G space division:  proc/nbgrp/npool/nimage =      16
     Subspace diagonalization in iterative solution of the eigenvalue problem:
     a serial algorithm will be used

     EXX: q-point mesh:     6    6    6
     EXX: setup a grid of 216 q-points centered on each k-point
     (k+q)-points:
   0.0000000   0.0000000   0.0000000         1    1
  -0.1666667   0.1666667  -0.1666667         2    1
  -0.3333333   0.3333333  -0.3333333         3    1
   0.5000000  -0.5000000   0.5000000         4    1
   0.3333333  -0.3333333   0.3333333         3   -1
   0.1666667  -0.1666667   0.1666667         2   -1
   0.1666667   0.1666667   0.1666667         2    3
   0.0000000   0.3333333   0.0000000         5    1
  -0.1666667   0.5000000  -0.1666667         6    1
   0.6666667  -0.3333333   0.6666667         7    1
   0.5000000  -0.1666667   0.5000000         8    1
   0.3333333   0.0000000   0.3333333         9    1
   0.3333333   0.3333333   0.3333333         3    3
   0.1666667   0.5000000   0.1666667         6    3
   0.0000000   0.6666667   0.0000000        10    1
   0.8333333  -0.1666667   0.8333333        11    1
   0.6666667   0.0000000   0.6666667        12    1
   0.5000000   0.1666667   0.5000000         8   -3
  -0.5000000  -0.5000000  -0.5000000         4    3
  -0.6666667  -0.3333333  -0.6666667         7    3
  -0.8333333  -0.1666667  -0.8333333        11    3
   0.0000000  -1.0000000   0.0000000        13    1
   0.8333333   0.1666667   0.8333333        11   -3
   0.6666667   0.3333333   0.6666667         7   -3
  -0.3333333  -0.3333333  -0.3333333         3   -3
  -0.5000000  -0.1666667  -0.5000000         8    3
  -0.6666667   0.0000000  -0.6666667        12   -1
  -0.8333333   0.1666667  -0.8333333        11   -1
   0.0000000  -0.6666667   0.0000000        10   -1
  -0.1666667  -0.5000000  -0.1666667         6   -3
  -0.1666667  -0.1666667  -0.1666667         2   -3
  -0.3333333   0.0000000  -0.3333333         9   -1
  -0.5000000   0.1666667  -0.5000000         8   -1
  -0.6666667   0.3333333  -0.6666667         7   -1
   0.1666667  -0.5000000   0.1666667         6   -1
   0.0000000  -0.3333333   0.0000000         5   -1
  -0.1666667  -0.1666667   0.1666667         2    4
  -0.3333333   0.0000000   0.0000000         5   -5
  -0.5000000   0.1666667  -0.1666667         6   -5
   0.3333333  -0.6666667   0.6666667         7   -5
   0.1666667  -0.5000000   0.5000000         8   -5
   0.0000000  -0.3333333   0.3333333         9   -5
   0.0000000   0.0000000   0.3333333         5   13
  -0.1666667   0.1666667   0.1666667         2   -2
  -0.3333333   0.3333333   0.0000000         9   13
  -0.5000000   0.5000000  -0.1666667         8   13
  -0.6666667   0.6666667  -0.3333333         7   13
   0.1666667  -0.1666667   0.5000000         6   13
   0.1666667   0.1666667   0.5000000         6  -16
   0.0000000   0.3333333   0.3333333         9   -6
  -0.1666667   0.5000000   0.1666667         6   -2
   0.6666667  -0.3333333   1.0000000        14    1
   0.5000000  -0.1666667   0.8333333        15    1
  -0.6666667   1.0000000  -0.3333333        14   13
  -0.6666667  -0.6666667  -0.3333333         7  -16
   0.1666667   0.5000000   0.5000000         8    7
  -1.0000000  -0.3333333  -0.6666667        14   -9
   0.8333333  -0.1666667  -0.8333333        11   -2
  -0.3333333  -1.0000000   0.0000000        16    1
   0.5000000   0.1666667   0.8333333        15   -3
  -0.5000000  -0.5000000  -0.1666667         8  -16
   0.3333333   0.6666667   0.6666667         7    7
  -0.8333333  -0.1666667  -0.5000000        15   -9
   0.0000000  -1.0000000   0.3333333        16   -9
   0.8333333   0.1666667  -0.8333333        11    4
   0.6666667   0.3333333   1.0000000        14   -3
  -0.3333333  -0.3333333   0.0000000         9   14
  -0.5000000  -0.1666667  -0.1666667         6    7
   0.3333333  -1.0000000   0.6666667        14   22
  -0.8333333   0.1666667  -0.5000000        15   10
  -1.0000000   0.3333333  -0.6666667        14   10
  -0.1666667  -0.5000000   0.1666667         6    4
  -0.3333333  -0.3333333   0.3333333         3    4
  -0.5000000  -0.1666667   0.1666667         6   -8
  -0.6666667   0.0000000   0.0000000        10   -5
   0.1666667  -0.8333333   0.8333333        11   -5
   0.0000000  -0.6666667   0.6666667        12   -5
  -0.1666667  -0.5000000   0.5000000         8    8
  -0.1666667  -0.1666667   0.5000000         6  -14
  -0.3333333   0.0000000   0.3333333         9    2
  -0.5000000   0.1666667   0.1666667         6    6
   0.3333333  -0.6666667   1.0000000        14   -5
   0.1666667  -0.5000000   0.8333333        15   -5
   1.0000000   0.6666667  -0.3333333        14   17
   0.0000000   0.0000000   0.6666667        10   13
  -0.1666667   0.1666667   0.5000000         6   15
  -0.3333333   0.3333333   0.3333333         3   -2
  -0.5000000   0.5000000   0.1666667         8  -15
  -0.6666667   0.6666667   0.0000000        12   13
  -0.8333333   0.8333333  -0.1666667        11   13
  -0.8333333  -0.8333333  -0.1666667        11  -16
  -1.0000000  -0.6666667  -0.3333333        14   18
  -0.1666667   0.5000000   0.5000000         8   -6
   0.6666667  -0.3333333  -0.6666667         7   -2
   0.5000000  -0.1666667  -0.8333333        15   -2
   0.3333333   0.0000000  -1.0000000        16   13
  -0.6666667  -0.6666667   0.0000000        12   14
   0.1666667   0.5000000   0.8333333        15    7
   0.0000000   0.6666667   0.6666667        12   -6
   0.8333333  -0.1666667  -0.5000000        15   12
   0.6666667   0.0000000  -0.6666667        12   -2
   0.5000000   0.1666667  -0.8333333        15    4
  -0.5000000  -0.5000000   0.1666667         8   14
   0.3333333   0.6666667   1.0000000        14    7
   0.1666667   0.8333333   0.8333333        11    7
  -1.0000000   0.0000000  -0.3333333        16   21
   0.8333333   0.1666667  -0.5000000        15  -11
   0.6666667   0.3333333  -0.6666667         7    4
   0.5000000   0.5000000  -0.5000000         4    4
   0.3333333   0.6666667  -0.6666667         7   -8
   0.1666667   0.8333333  -0.8333333        11   -8
  -1.0000000   0.0000000   0.0000000        13    5
  -0.1666667  -0.8333333   0.8333333        11    8
  -0.3333333  -0.6666667   0.6666667         7    8
   0.6666667   0.6666667  -0.3333333         7  -14
  -0.5000000  -0.1666667   0.5000000         8   -4
   0.3333333  -1.0000000  -0.6666667        14  -21
   0.1666667  -0.8333333  -0.8333333        11    6
   1.0000000   0.3333333   0.0000000        16   -5
  -0.1666667  -0.5000000   0.8333333        15    8
   0.8333333   0.8333333  -0.1666667        11  -14
   0.6666667   1.0000000  -0.3333333        14  -14
  -0.5000000   0.1666667   0.5000000         8    2
   0.3333333  -0.6666667  -0.6666667         7    6
   0.1666667  -0.5000000  -0.8333333        15    6
   0.0000000  -0.3333333  -1.0000000        16   17
   0.0000000   0.0000000  -1.0000000        13   13
   0.8333333  -0.8333333  -0.1666667        11   15
   0.6666667  -0.6666667  -0.3333333         7   15
  -0.5000000   0.5000000   0.5000000         4    2
  -0.6666667   0.6666667   0.3333333         7  -15
  -0.8333333   0.8333333   0.1666667        11  -15
  -0.8333333  -0.8333333   0.1666667        11   14
   0.0000000   0.3333333   1.0000000        16  -17
  -0.1666667   0.5000000   0.8333333        15   -6
  -0.3333333   0.6666667   0.6666667         7   -6
   0.5000000  -0.1666667  -0.5000000         8   -2
  -0.6666667  -1.0000000   0.3333333        14   14
  -0.6666667  -0.6666667   0.3333333         7   14
   0.1666667   0.5000000  -0.8333333        15   -8
  -1.0000000  -0.3333333   0.0000000        16    5
  -0.1666667   0.8333333   0.8333333        11   -6
  -0.3333333   1.0000000   0.6666667        14   21
   0.5000000   0.1666667  -0.5000000         8    4
   0.3333333   0.3333333  -0.3333333         3   -4
   0.1666667   0.5000000  -0.5000000         8   -8
   0.0000000   0.6666667  -0.6666667        12    5
  -0.1666667   0.8333333  -0.8333333        11    5
   0.6666667   0.0000000   0.0000000        10    5
   0.5000000   0.1666667  -0.1666667         6    8
   0.5000000   0.5000000  -0.1666667         8  -14
  -0.6666667  -0.3333333   0.6666667         7   -4
  -0.8333333  -0.1666667   0.5000000        15   11
   1.0000000   0.0000000   0.3333333        16  -21
  -0.1666667  -0.8333333  -0.8333333        11   -7
  -0.3333333  -0.6666667  -1.0000000        14   -7
   0.6666667   0.6666667   0.0000000        12  -14
  -0.5000000  -0.1666667   0.8333333        15   -4
  -0.6666667   0.0000000   0.6666667        12    2
  -0.8333333   0.1666667   0.5000000        15  -12
   0.0000000  -0.6666667  -0.6666667        12    6
  -0.1666667  -0.5000000  -0.8333333        15   -7
   0.8333333   0.8333333   0.1666667        11   16
  -0.3333333   0.0000000   1.0000000        16  -13
  -0.5000000   0.1666667   0.8333333        15    2
  -0.6666667   0.3333333   0.6666667         7    2
   0.1666667  -0.5000000  -0.5000000         8    6
   1.0000000   0.6666667   0.3333333        14  -18
   0.0000000   0.0000000  -0.6666667        10  -13
   0.8333333  -0.8333333   0.1666667        11  -13
   0.6666667  -0.6666667   0.0000000        12  -13
   0.5000000  -0.5000000  -0.1666667         8   15
   0.3333333  -0.3333333  -0.3333333         3    2
   0.1666667  -0.1666667  -0.5000000         6  -15
   0.1666667   0.1666667  -0.5000000         6   14
  -1.0000000  -0.6666667   0.3333333        14  -17
  -0.1666667   0.5000000  -0.8333333        15    5
  -0.3333333   0.6666667  -1.0000000        14    5
   0.5000000  -0.1666667  -0.1666667         6   -6
   0.3333333   0.0000000  -0.3333333         9   -2
   0.1666667   0.1666667  -0.1666667         2   -4
   0.0000000   0.3333333  -0.3333333         9    5
  -0.1666667   0.5000000  -0.5000000         8    5
  -0.3333333   0.6666667  -0.6666667         7    5
   0.5000000  -0.1666667   0.1666667         6    5
   0.3333333   0.0000000   0.0000000         5    5
   0.3333333   0.3333333   0.0000000         9  -14
   0.1666667   0.5000000  -0.1666667         6   -4
   1.0000000  -0.3333333   0.6666667        14  -10
   0.8333333  -0.1666667   0.5000000        15  -10
  -0.3333333   1.0000000  -0.6666667        14  -22
   0.5000000   0.1666667   0.1666667         6   -7
   0.5000000   0.5000000   0.1666667         8   16
  -0.6666667  -0.3333333  -1.0000000        14    3
  -0.8333333  -0.1666667   0.8333333        11   -4
   0.0000000   1.0000000  -0.3333333        16    9
   0.8333333   0.1666667   0.5000000        15    9
  -0.3333333  -0.6666667  -0.6666667         7   -7
   0.6666667   0.6666667   0.3333333         7   16
  -0.5000000  -0.1666667  -0.8333333        15    3
   0.3333333   1.0000000   0.0000000        16   -1
  -0.8333333   0.1666667   0.8333333        11    2
   1.0000000   0.3333333   0.6666667        14    9
  -0.1666667  -0.5000000  -0.5000000         8   -7
  -0.1666667  -0.1666667  -0.5000000         6   16
   0.6666667  -1.0000000   0.3333333        14  -13
  -0.5000000   0.1666667  -0.8333333        15   -1
  -0.6666667   0.3333333  -1.0000000        14   -1
   0.1666667  -0.5000000  -0.1666667         6    2
   0.0000000  -0.3333333  -0.3333333         9    6
   0.0000000   0.0000000  -0.3333333         5  -13
  -0.1666667   0.1666667  -0.5000000         6  -13
   0.6666667  -0.6666667   0.3333333         7  -13
   0.5000000  -0.5000000   0.1666667         8  -13
   0.3333333  -0.3333333   0.0000000         9  -13
   0.1666667  -0.1666667  -0.1666667         2    2

     Parallelization info
     --------------------
     sticks:   dense  smooth     PW     G-vecs:    dense   smooth      PW
     Min          42      42     13                  750      750     129
     Max          43      43     14                  754      754     132
     Sum         685     685    211                12039    12039    2085

     Using Slab Decomposition



     bravais-lattice index     =            2
     lattice parameter (alat)  =       7.9104  a.u.
     unit-cell volume          =     123.7472 (a.u.)^3
     number of atoms/cell      =            2
     number of atomic types    =            2
     number of electrons       =        16.00
     number of Kohn-Sham states=           16
     kinetic-energy cutoff     =      80.0000  Ry
     charge density cutoff     =     320.0000  Ry
     cutoff for Fock operator  =     320.0000  Ry
     scf convergence threshold =      1.0E-08
     mixing beta               =       0.7000
     number of iterations used =            8  plain     mixing
     Exchange-correlation= HSE
                           (   1   4  12   4   0   0   0)
     EXX-fraction              =        1.00

     celldm(1)=   7.910400  celldm(2)=   0.000000  celldm(3)=   0.000000
     celldm(4)=   0.000000  celldm(5)=   0.000000  celldm(6)=   0.000000

     crystal axes: (cart. coord. in units of alat)
               a(1) = (  -0.500000   0.000000   0.500000 )  
               a(2) = (   0.000000   0.500000   0.500000 )  
               a(3) = (  -0.500000   0.500000   0.000000 )  

     reciprocal axes: (cart. coord. in units 2 pi/alat)
               b(1) = ( -1.000000 -1.000000  1.000000 )  
               b(2) = (  1.000000  1.000000  1.000000 )  
               b(3) = ( -1.000000  1.000000 -1.000000 )  


     PseudoPot. # 1 for Mg read from file:
     ../../../../pseudos/Mg_ONCV_PBE-1.2.upf
     MD5 check sum: 330956729b1f868fdecd9f5113f6a961
     Pseudo is Norm-conserving, Zval = 10.0
     Generated using ONCVPSP code by D. R. Hamann
     Using radial grid of  602 points,  4 beta functions with: 
                l(1) =   0
                l(2) =   0
                l(3) =   1
                l(4) =   1

     PseudoPot. # 2 for O  read from file:
     ../../../../pseudos/O_ONCV_PBE-1.2.upf
     MD5 check sum: e36c48deb68f4e355fffe4602be2c42c
     Pseudo is Norm-conserving, Zval =  6.0
     Generated using ONCVPSP code by D. R. Hamann
     Using radial grid of  602 points,  4 beta functions with: 
                l(1) =   0
                l(2) =   0
                l(3) =   1
                l(4) =   1

     atomic species   valence    mass     pseudopotential
     Mg               10.00    24.30500     Mg( 1.00)
     O                 6.00    15.99900     O ( 1.00)

     48 Sym. Ops., with inversion, found


                                    s                        frac. trans.

      isym =  1     identity                                     

 cryst.   s( 1) = (     1          0          0      )
                  (     0          1          0      )
                  (     0          0          1      )

 cart.    s( 1) = (  1.0000000  0.0000000  0.0000000 )
                  (  0.0000000  1.0000000  0.0000000 )
                  (  0.0000000  0.0000000  1.0000000 )


      isym =  2     180 deg rotation - cart. axis [0,0,1]        

 cryst.   s( 2) = (     0          1         -1      )
                  (     1          0         -1      )
                  (     0          0         -1      )

 cart.    s( 2) = ( -1.0000000  0.0000000  0.0000000 )
                  (  0.0000000 -1.0000000  0.0000000 )
                  (  0.0000000  0.0000000  1.0000000 )


      isym =  3     180 deg rotation - cart. axis [0,1,0]        

 cryst.   s( 3) = (    -1          0          0      )
                  (    -1          0          1      )
                  (    -1          1          0      )

 cart.    s( 3) = ( -1.0000000  0.0000000  0.0000000 )
                  (  0.0000000  1.0000000  0.0000000 )
                  (  0.0000000  0.0000000 -1.0000000 )


      isym =  4     180 deg rotation - cart. axis [1,0,0]        

 cryst.   s( 4) = (     0         -1          1      )
                  (     0         -1          0      )
                  (     1         -1          0      )

 cart.    s( 4) = (  1.0000000  0.0000000  0.0000000 )
                  (  0.0000000 -1.0000000  0.0000000 )
                  (  0.0000000  0.0000000 -1.0000000 )


      isym =  5     180 deg rotation - cart. axis [1,1,0]        

 cryst.   s( 5) = (     0         -1          0      )
                  (    -1          0          0      )
                  (     0          0         -1      )

 cart.    s( 5) = (  0.0000000  1.0000000  0.0000000 )
                  (  1.0000000  0.0000000  0.0000000 )
                  (  0.0000000  0.0000000 -1.0000000 )


      isym =  6     180 deg rotation - cart. axis [1,-1,0]       

 cryst.   s( 6) = (    -1          0          1      )
                  (     0         -1          1      )
                  (     0          0          1      )

 cart.    s( 6) = (  0.0000000 -1.0000000  0.0000000 )
                  ( -1.0000000  0.0000000  0.0000000 )
                  (  0.0000000  0.0000000 -1.0000000 )


      isym =  7      90 deg rotation - cart. axis [0,0,-1]       

 cryst.   s( 7) = (     0          1          0      )
                  (     0          1         -1      )
                  (    -1          1          0      )

 cart.    s( 7) = (  0.0000000  1.0000000  0.0000000 )
                  ( -1.0000000  0.0000000  0.0000000 )
                  (  0.0000000  0.0000000  1.0000000 )


      isym =  8      90 deg rotation - cart. axis [0,0,1]        

 cryst.   s( 8) = (     1          0         -1      )
                  (     1          0          0      )
                  (     1         -1          0      )

 cart.    s( 8) = (  0.0000000 -1.0000000  0.0000000 )
                  (  1.0000000  0.0000000  0.0000000 )
                  (  0.0000000  0.0000000  1.0000000 )


      isym =  9     180 deg rotation - cart. axis [1,0,1]        

 cryst.   s( 9) = (    -1          0          0      )
                  (     0          0         -1      )
                  (     0         -1          0      )

 cart.    s( 9) = (  0.0000000  0.0000000  1.0000000 )
                  (  0.0000000 -1.0000000  0.0000000 )
                  (  1.0000000  0.0000000  0.0000000 )


      isym = 10     180 deg rotation - cart. axis [-1,0,1]       

 cryst.   s(10) = (     1          0          0      )
                  (     1         -1          0      )
                  (     1          0         -1      )

 cart.    s(10) = (  0.0000000  0.0000000 -1.0000000 )
                  (  0.0000000 -1.0000000  0.0000000 )
                  ( -1.0000000  0.0000000  0.0000000 )


      isym = 11      90 deg rotation - cart. axis [0,1,0]        

 cryst.   s(11) = (     0          1         -1      )
                  (    -1          1          0      )
                  (     0          1          0      )

 cart.    s(11) = (  0.0000000  0.0000000  1.0000000 )
                  (  0.0000000  1.0000000  0.0000000 )
                  ( -1.0000000  0.0000000  0.0000000 )


      isym = 12      90 deg rotation - cart. axis [0,-1,0]       

 cryst.   s(12) = (     0         -1          1      )
                  (     0          0          1      )
                  (    -1          0          1      )

 cart.    s(12) = (  0.0000000  0.0000000 -1.0000000 )
                  (  0.0000000  1.0000000  0.0000000 )
                  (  1.0000000  0.0000000  0.0000000 )


      isym = 13     180 deg rotation - cart. axis [0,1,1]        

 cryst.   s(13) = (    -1          1          0      )
                  (     0          1          0      )
                  (     0          1         -1      )

 cart.    s(13) = ( -1.0000000  0.0000000  0.0000000 )
                  (  0.0000000  0.0000000  1.0000000 )
                  (  0.0000000  1.0000000  0.0000000 )


      isym = 14     180 deg rotation - cart. axis [0,1,-1]       

 cryst.   s(14) = (     0          0         -1      )
                  (     0         -1          0      )
                  (    -1          0          0      )

 cart.    s(14) = ( -1.0000000  0.0000000  0.0000000 )
                  (  0.0000000  0.0000000 -1.0000000 )
                  (  0.0000000 -1.0000000  0.0000000 )


      isym = 15      90 deg rotation - cart. axis [-1,0,0]       

 cryst.   s(15) = (     0          0          1      )
                  (    -1          0          1      )
                  (     0         -1          1      )

 cart.    s(15) = (  1.0000000  0.0000000  0.0000000 )
                  (  0.0000000  0.0000000  1.0000000 )
                  (  0.0000000 -1.0000000  0.0000000 )


      isym = 16      90 deg rotation - cart. axis [1,0,0]        

 cryst.   s(16) = (     1         -1          0      )
                  (     1          0         -1      )
                  (     1          0          0      )

 cart.    s(16) = (  1.0000000  0.0000000  0.0000000 )
                  (  0.0000000  0.0000000 -1.0000000 )
                  (  0.0000000  1.0000000  0.0000000 )


      isym = 17     120 deg rotation - cart. axis [-1,-1,-1]     

 cryst.   s(17) = (    -1          0          1      )
                  (    -1          1          0      )
                  (    -1          0          0      )

 cart.    s(17) = (  0.0000000  1.0000000  0.0000000 )
                  (  0.0000000  0.0000000  1.0000000 )
                  (  1.0000000  0.0000000  0.0000000 )


      isym = 18     120 deg rotation - cart. axis [-1,1,1]       

 cryst.   s(18) = (     0          1          0      )
                  (     0          0          1      )
                  (     1          0          0      )

 cart.    s(18) = (  0.0000000 -1.0000000  0.0000000 )
                  (  0.0000000  0.0000000  1.0000000 )
                  ( -1.0000000  0.0000000  0.0000000 )


      isym = 19     120 deg rotation - cart. axis [1,1,-1]       

 cryst.   s(19) = (     1          0         -1      )
                  (     0          0         -1      )
                  (     0          1         -1      )

 cart.    s(19) = (  0.0000000  1.0000000  0.0000000 )
                  (  0.0000000  0.0000000 -1.0000000 )
                  ( -1.0000000  0.0000000  0.0000000 )


      isym = 20     120 deg rotation - cart. axis [1,-1,1]       

 cryst.   s(20) = (     0         -1          0      )
                  (     1         -1          0      )
                  (     0         -1          1      )

 cart.    s(20) = (  0.0000000 -1.0000000  0.0000000 )
                  (  0.0000000  0.0000000 -1.0000000 )
                  (  1.0000000  0.0000000  0.0000000 )


      isym = 21     120 deg rotation - cart. axis [1,1,1]        

 cryst.   s(21) = (     0          0         -1      )
                  (     0          1         -1      )
                  (     1          0         -1      )

 cart.    s(21) = (  0.0000000  0.0000000  1.0000000 )
                  (  1.0000000  0.0000000  0.0000000 )
                  (  0.0000000  1.0000000  0.0000000 )


      isym = 22     120 deg rotation - cart. axis [-1,1,-1]      

 cryst.   s(22) = (    -1          1          0      )
                  (    -1          0          0      )
                  (    -1          0          1      )

 cart.    s(22) = (  0.0000000  0.0000000  1.0000000 )
                  ( -1.0000000  0.0000000  0.0000000 )
                  (  0.0000000 -1.0000000  0.0000000 )


      isym = 23     120 deg rotation - cart. axis [1,-1,-1]      

 cryst.   s(23) = (     0          0          1      )
                  (     1          0          0      )
                  (     0          1          0      )

 cart.    s(23) = (  0.0000000  0.0000000 -1.0000000 )
                  ( -1.0000000  0.0000000  0.0000000 )
                  (  0.0000000  1.0000000  0.0000000 )


      isym = 24     120 deg rotation - cart. axis [-1,-1,1]      

 cryst.   s(24) = (     1         -1          0      )
                  (     0         -1          1      )
                  (     0         -1          0      )

 cart.    s(24) = (  0.0000000  0.0000000 -1.0000000 )
                  (  1.0000000  0.0000000  0.0000000 )
                  (  0.0000000 -1.0000000  0.0000000 )


      isym = 25     inversion                                    

 cryst.   s(25) = (    -1          0          0      )
                  (     0         -1          0      )
                  (     0          0         -1      )

 cart.    s(25) = ( -1.0000000  0.0000000  0.0000000 )
                  (  0.0000000 -1.0000000  0.0000000 )
                  (  0.0000000  0.0000000 -1.0000000 )


      isym = 26     inv. 180 deg rotation - cart. axis [0,0,1]   

 cryst.   s(26) = (     0         -1          1      )
                  (    -1          0          1      )
                  (     0          0          1      )

 cart.    s(26) = (  1.0000000  0.0000000  0.0000000 )
                  (  0.0000000  1.0000000  0.0000000 )
                  (  0.0000000  0.0000000 -1.0000000 )


      isym = 27     inv. 180 deg rotation - cart. axis [0,1,0]   

 cryst.   s(27) = (     1          0          0      )
                  (     1          0         -1      )
                  (     1         -1          0      )

 cart.    s(27) = (  1.0000000  0.0000000  0.0000000 )
                  (  0.0000000 -1.0000000  0.0000000 )
                  (  0.0000000  0.0000000  1.0000000 )


      isym = 28     inv. 180 deg rotation - cart. axis [1,0,0]   

 cryst.   s(28) = (     0          1         -1      )
                  (     0          1          0      )
                  (    -1          1          0      )

 cart.    s(28) = ( -1.0000000  0.0000000  0.0000000 )
                  (  0.0000000  1.0000000  0.0000000 )
                  (  0.0000000  0.0000000  1.0000000 )


      isym = 29     inv. 180 deg rotation - cart. axis [1,1,0]   

 cryst.   s(29) = (     0          1          0      )
                  (     1          0          0      )
                  (     0          0          1      )

 cart.    s(29) = (  0.0000000 -1.0000000  0.0000000 )
                  ( -1.0000000  0.0000000  0.0000000 )
                  (  0.0000000  0.0000000  1.0000000 )


      isym = 30     inv. 180 deg rotation - cart. axis [1,-1,0]  

 cryst.   s(30) = (     1          0         -1      )
                  (     0          1         -1      )
                  (     0          0         -1      )

 cart.    s(30) = (  0.0000000  1.0000000  0.0000000 )
                  (  1.0000000  0.0000000  0.0000000 )
                  (  0.0000000  0.0000000  1.0000000 )


      isym = 31     inv.  90 deg rotation - cart. axis [0,0,-1]  

 cryst.   s(31) = (     0         -1          0      )
                  (     0         -1          1      )
                  (     1         -1          0      )

 cart.    s(31) = (  0.0000000 -1.0000000  0.0000000 )
                  (  1.0000000  0.0000000  0.0000000 )
                  (  0.0000000  0.0000000 -1.0000000 )


      isym = 32     inv.  90 deg rotation - cart. axis [0,0,1]   

 cryst.   s(32) = (    -1          0          1      )
                  (    -1          0          0      )
                  (    -1          1          0      )

 cart.    s(32) = (  0.0000000  1.0000000  0.0000000 )
                  ( -1.0000000  0.0000000  0.0000000 )
                  (  0.0000000  0.0000000 -1.0000000 )


      isym = 33     inv. 180 deg rotation - cart. axis [1,0,1]   

 cryst.   s(33) = (     1          0          0      )
                  (     0          0          1      )
                  (     0          1          0      )

 cart.    s(33) = (  0.0000000  0.0000000 -1.0000000 )
                  (  0.0000000  1.0000000  0.0000000 )
                  ( -1.0000000  0.0000000  0.0000000 )


      isym = 34     inv. 180 deg rotation - cart. axis [-1,0,1]  

 cryst.   s(34) = (    -1          0          0      )
                  (    -1          1          0      )
                  (    -1          0          1      )

 cart.    s(34) = (  0.0000000  0.0000000  1.0000000 )
                  (  0.0000000  1.0000000  0.0000000 )
                  (  1.0000000  0.0000000  0.0000000 )


      isym = 35     inv.  90 deg rotation - cart. axis [0,1,0]   

 cryst.   s(35) = (     0         -1          1      )
                  (     1         -1          0      )
                  (     0         -1          0      )

 cart.    s(35) = (  0.0000000  0.0000000 -1.0000000 )
                  (  0.0000000 -1.0000000  0.0000000 )
                  (  1.0000000  0.0000000  0.0000000 )


      isym = 36     inv.  90 deg rotation - cart. axis [0,-1,0]  

 cryst.   s(36) = (     0          1         -1      )
                  (     0          0         -1      )
                  (     1          0         -1      )

 cart.    s(36) = (  0.0000000  0.0000000  1.0000000 )
                  (  0.0000000 -1.0000000  0.0000000 )
                  ( -1.0000000  0.0000000  0.0000000 )


      isym = 37     inv. 180 deg rotation - cart. axis [0,1,1]   

 cryst.   s(37) = (     1         -1          0      )
                  (     0         -1          0      )
                  (     0         -1          1      )

 cart.    s(37) = (  1.0000000  0.0000000  0.0000000 )
                  (  0.0000000  0.0000000 -1.0000000 )
                  (  0.0000000 -1.0000000  0.0000000 )


      isym = 38     inv. 180 deg rotation - cart. axis [0,1,-1]  

 cryst.   s(38) = (     0          0          1      )
                  (     0          1          0      )
                  (     1          0          0      )

 cart.    s(38) = (  1.0000000  0.0000000  0.0000000 )
                  (  0.0000000  0.0000000  1.0000000 )
                  (  0.0000000  1.0000000  0.0000000 )


      isym = 39     inv.  90 deg rotation - cart. axis [-1,0,0]  

 cryst.   s(39) = (     0          0         -1      )
                  (     1          0         -1      )
                  (     0          1         -1      )

 cart.    s(39) = ( -1.0000000  0.0000000  0.0000000 )
                  (  0.0000000  0.0000000 -1.0000000 )
                  (  0.0000000  1.0000000  0.0000000 )


      isym = 40     inv.  90 deg rotation - cart. axis [1,0,0]   

 cryst.   s(40) = (    -1          1          0      )
                  (    -1          0          1      )
                  (    -1          0          0      )

 cart.    s(40) = ( -1.0000000  0.0000000  0.0000000 )
                  (  0.0000000  0.0000000  1.0000000 )
                  (  0.0000000 -1.0000000  0.0000000 )


      isym = 41     inv. 120 deg rotation - cart. axis [-1,-1,-1]

 cryst.   s(41) = (     1          0         -1      )
                  (     1         -1          0      )
                  (     1          0          0      )

 cart.    s(41) = (  0.0000000 -1.0000000  0.0000000 )
                  (  0.0000000  0.0000000 -1.0000000 )
                  ( -1.0000000  0.0000000  0.0000000 )


      isym = 42     inv. 120 deg rotation - cart. axis [-1,1,1]  

 cryst.   s(42) = (     0         -1          0      )
                  (     0          0         -1      )
                  (    -1          0          0      )

 cart.    s(42) = (  0.0000000  1.0000000  0.0000000 )
                  (  0.0000000  0.0000000 -1.0000000 )
                  (  1.0000000  0.0000000  0.0000000 )


      isym = 43     inv. 120 deg rotation - cart. axis [1,1,-1]  

 cryst.   s(43) = (    -1          0          1      )
                  (     0          0          1      )
                  (     0         -1          1      )

 cart.    s(43) = (  0.0000000 -1.0000000  0.0000000 )
                  (  0.0000000  0.0000000  1.0000000 )
                  (  1.0000000  0.0000000  0.0000000 )


      isym = 44     inv. 120 deg rotation - cart. axis [1,-1,1]  

 cryst.   s(44) = (     0          1          0      )
                  (    -1          1          0      )
                  (     0          1         -1      )

 cart.    s(44) = (  0.0000000  1.0000000  0.0000000 )
                  (  0.0000000  0.0000000  1.0000000 )
                  ( -1.0000000  0.0000000  0.0000000 )


      isym = 45     inv. 120 deg rotation - cart. axis [1,1,1]   

 cryst.   s(45) = (     0          0          1      )
                  (     0         -1          1      )
                  (    -1          0          1      )

 cart.    s(45) = (  0.0000000  0.0000000 -1.0000000 )
                  ( -1.0000000  0.0000000  0.0000000 )
                  (  0.0000000 -1.0000000  0.0000000 )


      isym = 46     inv. 120 deg rotation - cart. axis [-1,1,-1] 

 cryst.   s(46) = (     1         -1          0      )
                  (     1          0          0      )
                  (     1          0         -1      )

 cart.    s(46) = (  0.0000000  0.0000000 -1.0000000 )
                  (  1.0000000  0.0000000  0.0000000 )
                  (  0.0000000  1.0000000  0.0000000 )


      isym = 47     inv. 120 deg rotation - cart. axis [1,-1,-1] 

 cryst.   s(47) = (     0          0         -1      )
                  (    -1          0          0      )
                  (     0         -1          0      )

 cart.    s(47) = (  0.0000000  0.0000000  1.0000000 )
                  (  1.0000000  0.0000000  0.0000000 )
                  (  0.0000000 -1.0000000  0.0000000 )


      isym = 48     inv. 120 deg rotation - cart. axis [-1,-1,1] 

 cryst.   s(48) = (    -1          1          0      )
                  (     0          1         -1      )
                  (     0          1          0      )

 cart.    s(48) = (  0.0000000  0.0000000  1.0000000 )
                  ( -1.0000000  0.0000000  0.0000000 )
                  (  0.0000000  1.0000000  0.0000000 )


     point group O_h (m-3m) 
     there are 10 classes
     the character table:

       E     8C3   3C2   6C4   6C2'  i     8S6   3s_h  6S4   6s_d 
A_1g   1.00  1.00  1.00  1.00  1.00  1.00  1.00  1.00  1.00  1.00
A_2g   1.00  1.00  1.00 -1.00 -1.00  1.00  1.00  1.00 -1.00 -1.00
E_g    2.00 -1.00  2.00  0.00  0.00  2.00 -1.00  2.00  0.00  0.00
T_1g   3.00  0.00 -1.00  1.00 -1.00  3.00  0.00 -1.00  1.00 -1.00
T_2g   3.00  0.00 -1.00 -1.00  1.00  3.00  0.00 -1.00 -1.00  1.00
A_1u   1.00  1.00  1.00  1.00  1.00 -1.00 -1.00 -1.00 -1.00 -1.00
A_2u   1.00  1.00  1.00 -1.00 -1.00 -1.00 -1.00 -1.00  1.00  1.00
E_u    2.00 -1.00  2.00  0.00  0.00 -2.00  1.00 -2.00  0.00  0.00
T_1u   3.00  0.00 -1.00  1.00 -1.00 -3.00  0.00  1.00 -1.00  1.00
T_2u   3.00  0.00 -1.00 -1.00  1.00 -3.00  0.00  1.00  1.00 -1.00

     the symmetry operations in each class and the name of the first element:

     E        1
          identity                                               
     8C3     17   19   20   18   24   21   22   23
          120 deg rotation - cart. axis [-1,-1,-1]               
     3C2      2    4    3
          180 deg rotation - cart. axis [0,0,1]                  
     6C4      7    8   15   16   12   11
           90 deg rotation - cart. axis [0,0,-1]                 
     6C2'     5    6   14   13   10    9
          180 deg rotation - cart. axis [1,1,0]                  
     i       25
          inversion                                              
     8S6     41   43   44   42   48   45   46   47
          inv. 120 deg rotation - cart. axis [-1,-1,-1]          
     3s_h    26   28   27
          inv. 180 deg rotation - cart. axis [0,0,1]             
     6S4     31   32   39   40   36   35
          inv.  90 deg rotation - cart. axis [0,0,-1]            
     6s_d    29   30   38   37   34   33
          inv. 180 deg rotation - cart. axis [1,1,0]             

   Cartesian axes

     site n.     atom                  positions (alat units)
         1        Mg     tau(   1) = (   0.0000000   0.0000000   0.0000000  )
         2        O      tau(   2) = (  -0.5000000   0.5000000   0.5000000  )

   Crystallographic axes

     site n.     atom                  positions (cryst. coord.)
         1        Mg     tau(   1) = (  0.0000000  0.0000000  0.0000000  )
         2        O      tau(   2) = (  0.5000000  0.5000000  0.5000000  )

     number of k points=    16
                       cart. coord. in units 2pi/alat
        k(    1) = (   0.0000000   0.0000000   0.0000000), wk =   0.0092593
        k(    2) = (  -0.1666667   0.1666667  -0.1666667), wk =   0.0740741
        k(    3) = (  -0.3333333   0.3333333  -0.3333333), wk =   0.0740741
        k(    4) = (   0.5000000  -0.5000000   0.5000000), wk =   0.0370370
        k(    5) = (   0.0000000   0.3333333   0.0000000), wk =   0.0555556
        k(    6) = (  -0.1666667   0.5000000  -0.1666667), wk =   0.2222222
        k(    7) = (   0.6666667  -0.3333333   0.6666667), wk =   0.2222222
        k(    8) = (   0.5000000  -0.1666667   0.5000000), wk =   0.2222222
        k(    9) = (   0.3333333   0.0000000   0.3333333), wk =   0.1111111
        k(   10) = (   0.0000000   0.6666667   0.0000000), wk =   0.0555556
        k(   11) = (   0.8333333  -0.1666667   0.8333333), wk =   0.2222222
        k(   12) = (   0.6666667  -0.0000000   0.6666667), wk =   0.1111111
        k(   13) = (   0.0000000  -1.0000000   0.0000000), wk =   0.0277778
        k(   14) = (   0.6666667  -0.3333333   1.0000000), wk =   0.2222222
        k(   15) = (   0.5000000  -0.1666667   0.8333333), wk =   0.2222222
        k(   16) = (  -0.3333333  -1.0000000   0.0000000), wk =   0.1111111

                       cryst. coord.
        k(    1) = (   0.0000000   0.0000000   0.0000000), wk =   0.0092593
        k(    2) = (   0.0000000   0.0000000   0.1666667), wk =   0.0740741
        k(    3) = (   0.0000000   0.0000000   0.3333333), wk =   0.0740741
        k(    4) = (   0.0000000   0.0000000  -0.5000000), wk =   0.0370370
        k(    5) = (   0.0000000   0.1666667   0.1666667), wk =   0.0555556
        k(    6) = (   0.0000000   0.1666667   0.3333333), wk =   0.2222222
        k(    7) = (   0.0000000   0.1666667  -0.5000000), wk =   0.2222222
        k(    8) = (   0.0000000   0.1666667  -0.3333333), wk =   0.2222222
        k(    9) = (   0.0000000   0.1666667  -0.1666667), wk =   0.1111111
        k(   10) = (   0.0000000   0.3333333   0.3333333), wk =   0.0555556
        k(   11) = (   0.0000000   0.3333333  -0.5000000), wk =   0.2222222
        k(   12) = (   0.0000000   0.3333333  -0.3333333), wk =   0.1111111
        k(   13) = (   0.0000000  -0.5000000  -0.5000000), wk =   0.0277778
        k(   14) = (   0.1666667   0.3333333  -0.5000000), wk =   0.2222222
        k(   15) = (   0.1666667   0.3333333  -0.3333333), wk =   0.2222222
        k(   16) = (   0.1666667  -0.5000000  -0.3333333), wk =   0.1111111

     Dense  grid:    12039 G-vectors     FFT dimensions: (  32,  32,  32)

     Dynamical RAM for                 wfc:       0.02 MB

     Dynamical RAM for     wfc (w. buffer):       0.39 MB

     Dynamical RAM for                 EXX:      79.98 MB

     Dynamical RAM for           str. fact:       0.02 MB

     Dynamical RAM for           local pot:       0.00 MB

     Dynamical RAM for          nlocal pot:       0.02 MB

     Dynamical RAM for                qrad:       0.91 MB

     Dynamical RAM for          rho,v,vnew:       0.08 MB

     Dynamical RAM for               rhoin:       0.03 MB

     Dynamical RAM for            rho*nmix:       0.18 MB

     Dynamical RAM for           G-vectors:       0.05 MB

     Dynamical RAM for          h,s,v(r/c):       0.05 MB

     Dynamical RAM for          <psi|beta>:       0.00 MB

     Dynamical RAM for                 psi:       0.05 MB

     Dynamical RAM for                hpsi:       0.05 MB

     Dynamical RAM for      wfcinit/wfcrot:       0.05 MB

     Estimated static dynamical RAM per process >      81.59 MB

     Estimated max dynamical RAM per process >      81.91 MB

     Estimated total dynamical RAM >       1.28 GB
     EXX: ACE will be initialized later

     Initial potential from superposition of free atoms

     starting charge      15.9336, renormalised to      16.0000
     Starting wfcs are random

     total cpu time spent up to now is        0.2 secs

     Self-consistent Calculation

     iteration #  1     ecut=    80.00 Ry     beta= 0.70
     Davidson diagonalization with overlap

---- Real-time Memory Report at c_bands before calling an iterative solver
            68 MiB given to the printing process from OS
             0 MiB allocation reported by mallinfo(arena+hblkhd)
         13882 MiB available memory on the node where the printing process lives
------------------
     ethr =  1.00E-02,  avg # of iterations =  7.9

     total cpu time spent up to now is        0.5 secs

     total energy              =    -140.69840653 Ry
     estimated scf accuracy    <       0.36375083 Ry

     iteration #  2     ecut=    80.00 Ry     beta= 0.70
     Davidson diagonalization with overlap

---- Real-time Memory Report at c_bands before calling an iterative solver
            69 MiB given to the printing process from OS
             0 MiB allocation reported by mallinfo(arena+hblkhd)
         13858 MiB available memory on the node where the printing process lives
------------------
     ethr =  2.27E-03,  avg # of iterations =  2.0

     total cpu time spent up to now is        0.5 secs

     total energy              =    -140.79377195 Ry
     estimated scf accuracy    <       0.29279496 Ry

     iteration #  3     ecut=    80.00 Ry     beta= 0.70
     Davidson diagonalization with overlap

---- Real-time Memory Report at c_bands before calling an iterative solver
            69 MiB given to the printing process from OS
             0 MiB allocation reported by mallinfo(arena+hblkhd)
         13874 MiB available memory on the node where the printing process lives
------------------
     ethr =  1.83E-03,  avg # of iterations =  1.8

     total cpu time spent up to now is        0.6 secs

     total energy              =    -140.85154400 Ry
     estimated scf accuracy    <       0.00152025 Ry

     iteration #  4     ecut=    80.00 Ry     beta= 0.70
     Davidson diagonalization with overlap

---- Real-time Memory Report at c_bands before calling an iterative solver
            69 MiB given to the printing process from OS
             0 MiB allocation reported by mallinfo(arena+hblkhd)
         13874 MiB available memory on the node where the printing process lives
------------------
     ethr =  9.50E-06,  avg # of iterations =  4.4

     total cpu time spent up to now is        0.7 secs

     total energy              =    -140.85188477 Ry
     estimated scf accuracy    <       0.00001389 Ry

     iteration #  5     ecut=    80.00 Ry     beta= 0.70
     Davidson diagonalization with overlap

---- Real-time Memory Report at c_bands before calling an iterative solver
            69 MiB given to the printing process from OS
             0 MiB allocation reported by mallinfo(arena+hblkhd)
         13874 MiB available memory on the node where the printing process lives
------------------
     ethr =  8.68E-08,  avg # of iterations =  2.2

     total cpu time spent up to now is        0.8 secs

     total energy              =    -140.85188765 Ry
     estimated scf accuracy    <       0.00000137 Ry

     iteration #  6     ecut=    80.00 Ry     beta= 0.70
     Davidson diagonalization with overlap

---- Real-time Memory Report at c_bands before calling an iterative solver
            69 MiB given to the printing process from OS
             0 MiB allocation reported by mallinfo(arena+hblkhd)
         13873 MiB available memory on the node where the printing process lives
------------------
     ethr =  8.55E-09,  avg # of iterations =  2.0

     total cpu time spent up to now is        0.9 secs

     total energy              =    -140.85188790 Ry
     estimated scf accuracy    <       0.00000013 Ry

     iteration #  7     ecut=    80.00 Ry     beta= 0.70
     Davidson diagonalization with overlap

---- Real-time Memory Report at c_bands before calling an iterative solver
            69 MiB given to the printing process from OS
             0 MiB allocation reported by mallinfo(arena+hblkhd)
         13872 MiB available memory on the node where the printing process lives
------------------
     ethr =  8.22E-10,  avg # of iterations =  1.2

     total cpu time spent up to now is        1.0 secs

     End of self-consistent calculation

          k = 0.0000 0.0000 0.0000 (  1459 PWs)   bands (ev):

   -63.2993 -30.0692 -30.0692 -30.0692  -8.2978   9.0035   9.0035   9.0035
    13.9554  25.0128  25.0128  25.0128  28.8647  30.8680  30.8680  33.7231

     occupation numbers 
     1.0000   1.0000   1.0000   1.0000   1.0000   1.0000   1.0000   1.0000
     0.0000   0.0000   0.0000   0.0000   0.0000   0.0000   0.0000   0.0000

          k =-0.1667 0.1667-0.1667 (  1489 PWs)   bands (ev):

   -63.2972 -30.0924 -30.0715 -30.0715  -7.9974   7.4922   8.8264   8.8264
    15.3658  22.6328  25.5973  25.5973  29.5624  29.5624  31.6020  34.5966

     occupation numbers 
     1.0000   1.0000   1.0000   1.0000   1.0000   1.0000   1.0000   1.0000
     0.0000   0.0000   0.0000   0.0000   0.0000   0.0000   0.0000   0.0000

          k =-0.3333 0.3333-0.3333 (  1501 PWs)   bands (ev):

   -63.2925 -30.1382 -30.0762 -30.0762  -7.3222   5.2988   8.4950   8.4950
    16.8523  21.5079  25.8364  25.8364  30.2315  30.2315  30.8199  38.6176

     occupation numbers 
     1.0000   1.0000   1.0000   1.0000   1.0000   1.0000   1.0000   1.0000
     0.0000   0.0000   0.0000   0.0000   0.0000   0.0000   0.0000   0.0000

          k = 0.5000-0.5000 0.5000 (  1502 PWs)   bands (ev):

   -63.2902 -30.1610 -30.0785 -30.0785  -6.9337   4.3303   8.3393   8.3393
    17.0524  21.8309  25.5764  25.5764  30.2731  31.8470  31.8470  37.9670

     occupation numbers 
     1.0000   1.0000   1.0000   1.0000   1.0000   1.0000   1.0000   1.0000
     0.0000   0.0000   0.0000   0.0000   0.0000   0.0000   0.0000   0.0000

          k = 0.0000 0.3333 0.0000 (  1491 PWs)   bands (ev):

   -63.2964 -30.0906 -30.0768 -30.0768  -7.9075   7.4145   8.6118   8.6118
    15.8500  21.8555  25.9027  25.9027  26.9872  31.7303  33.9175  35.0805

     occupation numbers 
     1.0000   1.0000   1.0000   1.0000   1.0000   1.0000   1.0000   1.0000
     0.0000   0.0000   0.0000   0.0000   0.0000   0.0000   0.0000   0.0000

          k =-0.1667 0.5000-0.1667 (  1484 PWs)   bands (ev):

   -63.2924 -30.1236 -30.0829 -30.0825  -7.3766   5.8957   8.1279   8.2789
    17.5098  20.6772  24.5817  26.4582  27.6328  32.1422  34.2728  38.0717

     occupation numbers 
     1.0000   1.0000   1.0000   1.0000   1.0000   1.0000   1.0000   1.0000
     0.0000   0.0000   0.0000   0.0000   0.0000   0.0000   0.0000   0.0000

          k = 0.6667-0.3333 0.6667 (  1493 PWs)   bands (ev):

   -63.2893 -30.1501 -30.0911 -30.0838  -6.8847   4.7887   7.5472   8.1514
    18.1564  21.4031  23.5127  26.2670  29.2801  32.7308  33.7420  38.5572

     occupation numbers 
     1.0000   1.0000   1.0000   1.0000   1.0000   1.0000   1.0000   1.0000
     0.0000   0.0000   0.0000   0.0000   0.0000   0.0000   0.0000   0.0000

          k = 0.5000-0.1667 0.5000 (  1499 PWs)   bands (ev):

   -63.2902 -30.1433 -30.0946 -30.0785  -7.0005   5.0692   7.4350   8.3399
    18.1542  21.2907  23.7488  26.3783  29.9881  30.6102  33.6644  39.0538

     occupation numbers 
     1.0000   1.0000   1.0000   1.0000   1.0000   1.0000   1.0000   1.0000
     0.0000   0.0000   0.0000   0.0000   0.0000   0.0000   0.0000   0.0000

          k = 0.3333 0.0000 0.3333 (  1492 PWs)   bands (ev):

   -63.2940 -30.1140 -30.0854 -30.0724  -7.5781   6.3625   8.0557   8.6803
    16.9002  21.3592  25.0051  26.8938  27.5026  30.4765  33.6672  36.1993

     occupation numbers 
     1.0000   1.0000   1.0000   1.0000   1.0000   1.0000   1.0000   1.0000
     0.0000   0.0000   0.0000   0.0000   0.0000   0.0000   0.0000   0.0000

          k = 0.0000 0.6667 0.0000 (  1479 PWs)   bands (ev):

   -63.2900 -30.1294 -30.0920 -30.0920  -7.1100   5.5382   7.9378   7.9378
    18.5304  19.1390  23.1326  27.5117  27.5117  34.1479  36.4868  38.8246

     occupation numbers 
     1.0000   1.0000   1.0000   1.0000   1.0000   1.0000   1.0000   1.0000
     0.0000   0.0000   0.0000   0.0000   0.0000   0.0000   0.0000   0.0000

          k = 0.8333-0.1667 0.8333 (  1501 PWs)   bands (ev):

   -63.2878 -30.1397 -30.1051 -30.0944  -6.7714   5.1884   7.0867   7.8039
    18.9228  20.0318  22.1696  27.6151  27.7931  35.3041  36.2076  38.4176

     occupation numbers 
     1.0000   1.0000   1.0000   1.0000   1.0000   1.0000   1.0000   1.0000
     0.0000   0.0000   0.0000   0.0000   0.0000   0.0000   0.0000   0.0000

          k = 0.6667-0.0000 0.6667 (  1516 PWs)   bands (ev):

   -63.2880 -30.1289 -30.1242 -30.0877  -6.7168   5.7459   5.9088   7.9915
    19.4626  21.3772  21.7986  27.0819  28.1529  32.4996  36.9957  37.6158

     occupation numbers 
     1.0000   1.0000   1.0000   1.0000   1.0000   1.0000   1.0000   1.0000
     0.0000   0.0000   0.0000   0.0000   0.0000   0.0000   0.0000   0.0000

          k = 0.0000-1.0000 0.0000 (  1524 PWs)   bands (ev):

   -63.2873 -30.1468 -30.0997 -30.0997  -6.7066   4.8838   7.6424   7.6424
    18.2137  19.2502  22.2960  28.2902  28.2902  34.8488  36.3618  40.2602

     occupation numbers 
     1.0000   1.0000   1.0000   1.0000   1.0000   1.0000   1.0000   1.0000
     0.0000   0.0000   0.0000   0.0000   0.0000   0.0000   0.0000   0.0000

          k = 0.6667-0.3333 1.0000 (  1492 PWs)   bands (ev):

   -63.2893 -30.1342 -30.1027 -30.0866  -6.9471   5.4317   7.1338   7.9744
    19.2192  20.2059  22.8284  26.4916  28.7484  32.2612  37.3061  37.7720

     occupation numbers 
     1.0000   1.0000   1.0000   1.0000   1.0000   1.0000   1.0000   1.0000
     0.0000   0.0000   0.0000   0.0000   0.0000   0.0000   0.0000   0.0000

          k = 0.5000-0.1667 0.8333 (  1498 PWs)   bands (ev):

   -63.2878 -30.1369 -30.1120 -30.0918  -6.7167   5.3790   6.5114   7.7224
    19.7325  21.1227  22.0146  25.7990  30.1091  31.3434  37.2431  37.8621

     occupation numbers 
     1.0000   1.0000   1.0000   1.0000   1.0000   1.0000   1.0000   1.0000
     0.0000   0.0000   0.0000   0.0000   0.0000   0.0000   0.0000   0.0000

          k =-0.3333-1.0000 0.0000 (  1510 PWs)   bands (ev):

   -63.2871 -30.1350 -30.1114 -30.1014  -6.6564   5.4120   6.7398   7.3175
    19.6753  20.7022  21.6554  25.8159  29.5050  34.0010  35.7242  37.8609

     occupation numbers 
     1.0000   1.0000   1.0000   1.0000   1.0000   1.0000   1.0000   1.0000
     0.0000   0.0000   0.0000   0.0000   0.0000   0.0000   0.0000   0.0000

     highest occupied, lowest unoccupied level (ev):     9.0035   13.9554

!    total energy              =    -140.85188791 Ry
     estimated scf accuracy    <          2.1E-09 Ry

     convergence has been achieved in   7 iterations

     Using ACE for calculation of exact exchange

     EXX grid:    12039 G-vectors     FFT dimensions: (  32,  32,  32)
     ACE projected onto    16 (nbndproj) and applied to    16 (nbnd) bands

     EXX: now go back to refine exchange calculation

     total cpu time spent up to now is      136.3 secs

     Self-consistent Calculation

     iteration #  1     ecut=    80.00 Ry     beta= 0.70
     Davidson diagonalization with overlap

---- Real-time Memory Report at c_bands before calling an iterative solver
           204 MiB given to the printing process from OS
             0 MiB allocation reported by mallinfo(arena+hblkhd)
         11708 MiB available memory on the node where the printing process lives
------------------
     ethr =  8.22E-10,  avg # of iterations =  6.1

     total cpu time spent up to now is      136.6 secs

     total energy              =    -140.87303616 Ry
     estimated scf accuracy    <       0.00052660 Ry

     iteration #  2     ecut=    80.00 Ry     beta= 0.70
     Davidson diagonalization with overlap

---- Real-time Memory Report at c_bands before calling an iterative solver
           204 MiB given to the printing process from OS
             0 MiB allocation reported by mallinfo(arena+hblkhd)
         11710 MiB available memory on the node where the printing process lives
------------------
     ethr =  3.29E-06,  avg # of iterations =  1.0

     total cpu time spent up to now is      136.7 secs

     total energy              =    -140.87303770 Ry
     estimated scf accuracy    <       0.00003087 Ry

     iteration #  3     ecut=    80.00 Ry     beta= 0.70
     Davidson diagonalization with overlap

---- Real-time Memory Report at c_bands before calling an iterative solver
           204 MiB given to the printing process from OS
             0 MiB allocation reported by mallinfo(arena+hblkhd)
         11710 MiB available memory on the node where the printing process lives
------------------
     ethr =  1.93E-07,  avg # of iterations =  2.0

     total cpu time spent up to now is      136.8 secs

     total energy              =    -140.87304081 Ry
     estimated scf accuracy    <       0.00000670 Ry

     iteration #  4     ecut=    80.00 Ry     beta= 0.70
     Davidson diagonalization with overlap

---- Real-time Memory Report at c_bands before calling an iterative solver
           204 MiB given to the printing process from OS
             0 MiB allocation reported by mallinfo(arena+hblkhd)
         11710 MiB available memory on the node where the printing process lives
------------------
     ethr =  4.19E-08,  avg # of iterations =  1.8

     total cpu time spent up to now is      136.9 secs

     total energy              =    -140.87304208 Ry
     estimated scf accuracy    <       0.00000003 Ry

     iteration #  5     ecut=    80.00 Ry     beta= 0.70
     Davidson diagonalization with overlap

---- Real-time Memory Report at c_bands before calling an iterative solver
           204 MiB given to the printing process from OS
             0 MiB allocation reported by mallinfo(arena+hblkhd)
         11710 MiB available memory on the node where the printing process lives
------------------
     ethr =  1.93E-10,  avg # of iterations =  2.0

     total cpu time spent up to now is      137.0 secs

     End of self-consistent calculation

          k = 0.0000 0.0000 0.0000 (  1459 PWs)   bands (ev):

   -71.9714 -34.4109 -34.4108 -34.4108 -12.7692   6.9143   6.9144   6.9144
    14.8760  26.4050  26.4050  26.4050  30.2220  32.5243  32.5243  36.0203

     occupation numbers 
     1.0000   1.0000   1.0000   1.0000   1.0000   1.0000   1.0000   1.0000
     0.0000   0.0000   0.0000   0.0000   0.0000   0.0000   0.0000   0.0000

          k =-0.1667 0.1667-0.1667 (  1489 PWs)   bands (ev):

   -71.9688 -34.4374 -34.4126 -34.4126 -12.4506   5.2549   6.7044   6.7044
    16.4273  23.9954  27.0654  27.0654  31.3184  31.3184  33.3865  36.4378

     occupation numbers 
     1.0000   1.0000   1.0000   1.0000   1.0000   1.0000   1.0000   1.0000
     0.0000   0.0000   0.0000   0.0000   0.0000   0.0000   0.0000   0.0000

          k =-0.3333 0.3333-0.3333 (  1501 PWs)   bands (ev):

   -71.9650 -34.4901 -34.4174 -34.4174 -11.7323   2.7990   6.3217   6.3217
    18.0336  23.1318  27.4585  27.4585  32.0256  32.0256  32.6292  40.5196

     occupation numbers 
     1.0000   1.0000   1.0000   1.0000   1.0000   1.0000   1.0000   1.0000
     0.0000   0.0000   0.0000   0.0000   0.0000   0.0000   0.0000   0.0000

          k = 0.5000-0.5000 0.5000 (  1502 PWs)   bands (ev):

   -71.9621 -34.5160 -34.4192 -34.4192 -11.3272   1.7204   6.1403   6.1403
    18.1988  23.7059  27.2343  27.2343  31.9752  33.7866  33.7866  39.9325

     occupation numbers 
     1.0000   1.0000   1.0000   1.0000   1.0000   1.0000   1.0000   1.0000
     0.0000   0.0000   0.0000   0.0000   0.0000   0.0000   0.0000   0.0000

          k = 0.0000 0.3333 0.0000 (  1491 PWs)   bands (ev):

   -71.9678 -34.4343 -34.4190 -34.4189 -12.3563   5.1680   6.4643   6.4643
    16.9690  23.0791  27.4987  27.4998  28.7238  33.4221  35.4426  37.2824

     occupation numbers 
     1.0000   1.0000   1.0000   1.0000   1.0000   1.0000   1.0000   1.0000
     0.0000   0.0000   0.0000   0.0000   0.0000   0.0000   0.0000   0.0000

          k =-0.1667 0.5000-0.1667 (  1484 PWs)   bands (ev):

   -71.9642 -34.4725 -34.4253 -34.4249 -11.7947   3.4644   5.9160   6.0851
    18.8116  21.9826  26.2207  28.2199  29.4275  33.9428  36.1849  40.4790

     occupation numbers 
     1.0000   1.0000   1.0000   1.0000   1.0000   1.0000   1.0000   1.0000
     0.0000   0.0000   0.0000   0.0000   0.0000   0.0000   0.0000   0.0000

          k = 0.6667-0.3333 0.6667 (  1493 PWs)   bands (ev):

   -71.9611 -34.5030 -34.4339 -34.4256 -11.2800   2.2309   5.2750   5.9316
    19.4136  23.1306  25.0842  28.0482  31.1205  34.6445  35.5902  40.7160

     occupation numbers 
     1.0000   1.0000   1.0000   1.0000   1.0000   1.0000   1.0000   1.0000
     0.0000   0.0000   0.0000   0.0000   0.0000   0.0000   0.0000   0.0000

          k = 0.5000-0.1667 0.5000 (  1499 PWs)   bands (ev):

   -71.9621 -34.4952 -34.4385 -34.4193 -11.3992   2.5415   5.1554   6.1401
    19.4554  22.9212  25.3691  28.1347  31.6759  32.4433  35.6265  41.1880

     occupation numbers 
     1.0000   1.0000   1.0000   1.0000   1.0000   1.0000   1.0000   1.0000
     0.0000   0.0000   0.0000   0.0000   0.0000   0.0000   0.0000   0.0000

          k = 0.3333 0.0000 0.3333 (  1492 PWs)   bands (ev):

   -71.9656 -34.4616 -34.4285 -34.4129 -12.0067   3.9877   5.8440   6.5260
    18.1529  22.7030  26.6795  28.3645  29.3043  32.2284  35.7110  38.1763

     occupation numbers 
     1.0000   1.0000   1.0000   1.0000   1.0000   1.0000   1.0000   1.0000
     0.0000   0.0000   0.0000   0.0000   0.0000   0.0000   0.0000   0.0000

          k = 0.0000 0.6667 0.0000 (  1479 PWs)   bands (ev):

   -71.9625 -34.4786 -34.4363 -34.4363 -11.5171   3.0640   5.7080   5.7080
    19.9315  20.2245  24.8238  29.5205  29.5209  35.9377  38.7603  40.8034

     occupation numbers 
     1.0000   1.0000   1.0000   1.0000   1.0000   1.0000   1.0000   1.0000
     0.0000   0.0000   0.0000   0.0000   0.0000   0.0000   0.0000   0.0000

          k = 0.8333-0.1667 0.8333 (  1501 PWs)   bands (ev):

   -71.9598 -34.4904 -34.4508 -34.4382 -11.1686   2.6763   4.7686   5.5526
    20.0924  21.4850  23.8966  29.6758  29.8103  37.2037  38.3913  40.3223

     occupation numbers 
     1.0000   1.0000   1.0000   1.0000   1.0000   1.0000   1.0000   1.0000
     0.0000   0.0000   0.0000   0.0000   0.0000   0.0000   0.0000   0.0000

          k = 0.6667-0.0000 0.6667 (  1516 PWs)   bands (ev):

   -71.9606 -34.4785 -34.4727 -34.4303 -11.1052   3.2919   3.4773   5.7562
    20.7946  23.0263  23.4376  29.0484  29.8868  34.1481  39.0841  39.8684

     occupation numbers 
     1.0000   1.0000   1.0000   1.0000   1.0000   1.0000   1.0000   1.0000
     0.0000   0.0000   0.0000   0.0000   0.0000   0.0000   0.0000   0.0000

          k = 0.0000-1.0000 0.0000 (  1524 PWs)   bands (ev):

   -71.9591 -34.4981 -34.4446 -34.4446 -11.1068   2.3391   5.3748   5.3748
    19.2513  20.5561  24.2163  30.5110  30.5110  36.8931  38.2662  42.1081

     occupation numbers 
     1.0000   1.0000   1.0000   1.0000   1.0000   1.0000   1.0000   1.0000
     0.0000   0.0000   0.0000   0.0000   0.0000   0.0000   0.0000   0.0000

          k = 0.6667-0.3333 1.0000 (  1492 PWs)   bands (ev):

   -71.9611 -34.4843 -34.4480 -34.4288 -11.3478   2.9439   4.8267   5.7342
    20.7155  21.5150  24.4104  28.4216  30.5924  34.1027  39.2938  40.0229

     occupation numbers 
     1.0000   1.0000   1.0000   1.0000   1.0000   1.0000   1.0000   1.0000
     0.0000   0.0000   0.0000   0.0000   0.0000   0.0000   0.0000   0.0000

          k = 0.5000-0.1667 0.8333 (  1498 PWs)   bands (ev):

   -71.9598 -34.4874 -34.4582 -34.4351 -11.1080   2.8878   4.1409   5.4548
    21.1480  22.7270  23.5792  27.6400  31.8752  33.3027  39.3913  39.8948

     occupation numbers 
     1.0000   1.0000   1.0000   1.0000   1.0000   1.0000   1.0000   1.0000
     0.0000   0.0000   0.0000   0.0000   0.0000   0.0000   0.0000   0.0000

          k =-0.3333-1.0000 0.0000 (  1510 PWs)   bands (ev):

   -71.9590 -34.4847 -34.4578 -34.4463 -11.0505   2.9262   4.3894   5.0130
    20.9439  22.1689  23.3934  27.6990  31.6120  35.8797  37.7617  40.1319

     occupation numbers 
     1.0000   1.0000   1.0000   1.0000   1.0000   1.0000   1.0000   1.0000
     0.0000   0.0000   0.0000   0.0000   0.0000   0.0000   0.0000   0.0000

     highest occupied, lowest unoccupied level (ev):     6.9144   14.8760

!    total energy              =    -140.87304209 Ry
     estimated scf accuracy    <          4.7E-09 Ry

     convergence has been achieved in   5 iterations

     Using ACE for calculation of exact exchange
     ACE projected onto    16 (nbndproj) and applied to    16 (nbnd) bands

     total energy              =    -140.87365439 Ry
     Harris-Foulkes estimate   =    -140.87365440 Ry
     est. exchange err (dexx)  =       0.00061230 Ry
     - averaged Fock potential =      16.88640022 Ry
     + Fock energy (ACE)       =      -8.44993894 Ry

     EXX: now go back to refine exchange calculation

     total cpu time spent up to now is      262.1 secs

     Self-consistent Calculation

     iteration #  1     ecut=    80.00 Ry     beta= 0.70
     Davidson diagonalization with overlap

---- Real-time Memory Report at c_bands before calling an iterative solver
           205 MiB given to the printing process from OS
             0 MiB allocation reported by mallinfo(arena+hblkhd)
         11700 MiB available memory on the node where the printing process lives
------------------
     ethr =  1.93E-10,  avg # of iterations =  5.0

     total cpu time spent up to now is      262.3 secs

     total energy              =    -140.87373857 Ry
     estimated scf accuracy    <       0.00001230 Ry

     iteration #  2     ecut=    80.00 Ry     beta= 0.70
     Davidson diagonalization with overlap

---- Real-time Memory Report at c_bands before calling an iterative solver
           205 MiB given to the printing process from OS
             0 MiB allocation reported by mallinfo(arena+hblkhd)
         11700 MiB available memory on the node where the printing process lives
------------------
     ethr =  7.69E-08,  avg # of iterations =  1.0

     total cpu time spent up to now is      262.3 secs

     total energy              =    -140.87373873 Ry
     estimated scf accuracy    <       0.00000116 Ry

     iteration #  3     ecut=    80.00 Ry     beta= 0.70
     Davidson diagonalization with overlap

---- Real-time Memory Report at c_bands before calling an iterative solver
           205 MiB given to the printing process from OS
             0 MiB allocation reported by mallinfo(arena+hblkhd)
         11700 MiB available memory on the node where the printing process lives
------------------
     ethr =  7.22E-09,  avg # of iterations =  2.0

     total cpu time spent up to now is      262.4 secs

     total energy              =    -140.87373895 Ry
     estimated scf accuracy    <       0.00000055 Ry

     iteration #  4     ecut=    80.00 Ry     beta= 0.70
     Davidson diagonalization with overlap

---- Real-time Memory Report at c_bands before calling an iterative solver
           205 MiB given to the printing process from OS
             0 MiB allocation reported by mallinfo(arena+hblkhd)
         11700 MiB available memory on the node where the printing process lives
------------------
     ethr =  3.44E-09,  avg # of iterations =  1.8

     total cpu time spent up to now is      262.5 secs

     End of self-consistent calculation

          k = 0.0000 0.0000 0.0000 (  1459 PWs)   bands (ev):

   -71.9767 -34.4250 -34.4250 -34.4250 -12.7767   6.8926   6.8926   6.8926
    14.9476  26.4198  26.4198  26.4198  30.2477  32.5268  32.5268  36.0332

     occupation numbers 
     1.0000   1.0000   1.0000   1.0000   1.0000   1.0000   1.0000   1.0000
     0.0000   0.0000   0.0000   0.0000   0.0000   0.0000   0.0000   0.0000

          k =-0.1667 0.1667-0.1667 (  1489 PWs)   bands (ev):

   -71.9742 -34.4513 -34.4268 -34.4268 -12.4591   5.2539   6.6849   6.6849
    16.4786  24.0187  27.0793  27.0793  31.3245  31.3245  33.4053  36.4523

     occupation numbers 
     1.0000   1.0000   1.0000   1.0000   1.0000   1.0000   1.0000   1.0000
     0.0000   0.0000   0.0000   0.0000   0.0000   0.0000   0.0000   0.0000

          k =-0.3333 0.3333-0.3333 (  1501 PWs)   bands (ev):

   -71.9703 -34.5036 -34.4314 -34.4314 -11.7451   2.8081   6.3034   6.3034
    18.0768  23.1576  27.4715  27.4715  32.0386  32.0386  32.6497  40.5333

     occupation numbers 
     1.0000   1.0000   1.0000   1.0000   1.0000   1.0000   1.0000   1.0000
     0.0000   0.0000   0.0000   0.0000   0.0000   0.0000   0.0000   0.0000

          k = 0.5000-0.5000 0.5000 (  1502 PWs)   bands (ev):

   -71.9676 -34.5293 -34.4332 -34.4332 -11.3419   1.7332   6.1229   6.1229
    18.2424  23.7334  27.2473  27.2473  31.9972  33.8046  33.8046  39.9405

     occupation numbers 
     1.0000   1.0000   1.0000   1.0000   1.0000   1.0000   1.0000   1.0000
     0.0000   0.0000   0.0000   0.0000   0.0000   0.0000   0.0000   0.0000

          k = 0.0000 0.3333 0.0000 (  1491 PWs)   bands (ev):

   -71.9733 -34.4483 -34.4331 -34.4331 -12.3651   5.1684   6.4472   6.4472
    17.0145  23.1035  27.5140  27.5141  28.7360  33.4238  35.4597  37.2938

     occupation numbers 
     1.0000   1.0000   1.0000   1.0000   1.0000   1.0000   1.0000   1.0000
     0.0000   0.0000   0.0000   0.0000   0.0000   0.0000   0.0000   0.0000

          k =-0.1667 0.5000-0.1667 (  1484 PWs)   bands (ev):

   -71.9696 -34.4862 -34.4394 -34.4389 -11.8066   3.4710   5.9044   6.0693
    18.8473  22.0095  26.2391  28.2342  29.4433  33.9506  36.1988  40.4923

     occupation numbers 
     1.0000   1.0000   1.0000   1.0000   1.0000   1.0000   1.0000   1.0000
     0.0000   0.0000   0.0000   0.0000   0.0000   0.0000   0.0000   0.0000

          k = 0.6667-0.3333 0.6667 (  1493 PWs)   bands (ev):

   -71.9666 -34.5165 -34.4478 -34.4396 -11.2946   2.2411   5.2673   5.9162
    19.4486  23.1568  25.1055  28.0620  31.1378  34.6601  35.6051  40.7111

     occupation numbers 
     1.0000   1.0000   1.0000   1.0000   1.0000   1.0000   1.0000   1.0000
     0.0000   0.0000   0.0000   0.0000   0.0000   0.0000   0.0000   0.0000

          k = 0.5000-0.1667 0.5000 (  1499 PWs)   bands (ev):

   -71.9675 -34.5088 -34.4525 -34.4334 -11.4133   2.5507   5.1487   6.1232
    19.4903  22.9467  25.3906  28.1477  31.6886  32.4613  35.6404  41.1928

     occupation numbers 
     1.0000   1.0000   1.0000   1.0000   1.0000   1.0000   1.0000   1.0000
     0.0000   0.0000   0.0000   0.0000   0.0000   0.0000   0.0000   0.0000

          k = 0.3333 0.0000 0.3333 (  1492 PWs)   bands (ev):

   -71.9711 -34.4754 -34.4426 -34.4270 -12.0172   3.9929   5.8331   6.5079
    18.1911  22.7291  26.6972  28.3771  29.3150  32.2411  35.7246  38.1849

     occupation numbers 
     1.0000   1.0000   1.0000   1.0000   1.0000   1.0000   1.0000   1.0000
     0.0000   0.0000   0.0000   0.0000   0.0000   0.0000   0.0000   0.0000

          k = 0.0000 0.6667 0.0000 (  1479 PWs)   bands (ev):

   -71.9678 -34.4921 -34.4503 -34.4503 -11.5311   3.0707   5.6936   5.6936
    19.9643  20.2566  24.8465  29.5393  29.5393  35.9378  38.7733  40.8147

     occupation numbers 
     1.0000   1.0000   1.0000   1.0000   1.0000   1.0000   1.0000   1.0000
     0.0000   0.0000   0.0000   0.0000   0.0000   0.0000   0.0000   0.0000

          k = 0.8333-0.1667 0.8333 (  1501 PWs)   bands (ev):

   -71.9653 -34.5039 -34.4647 -34.4523 -11.1840   2.6830   4.7628   5.5389
    20.1245  21.5150  23.9214  29.6942  29.8302  37.2118  38.3994  40.3247

     occupation numbers 
     1.0000   1.0000   1.0000   1.0000   1.0000   1.0000   1.0000   1.0000
     0.0000   0.0000   0.0000   0.0000   0.0000   0.0000   0.0000   0.0000

          k = 0.6667-0.0000 0.6667 (  1516 PWs)   bands (ev):

   -71.9659 -34.4921 -34.4864 -34.4442 -11.1218   3.2959   3.4792   5.7408
    20.8249  23.0517  23.4646  29.0642  29.9035  34.1582  39.0970  39.8754

     occupation numbers 
     1.0000   1.0000   1.0000   1.0000   1.0000   1.0000   1.0000   1.0000
     0.0000   0.0000   0.0000   0.0000   0.0000   0.0000   0.0000   0.0000

          k = 0.0000-1.0000 0.0000 (  1524 PWs)   bands (ev):

   -71.9646 -34.5116 -34.4586 -34.4586 -11.1223   2.3465   5.3621   5.3621
    19.2856  20.5914  24.2430  30.5331  30.5331  36.9012  38.2627  42.1160

     occupation numbers 
     1.0000   1.0000   1.0000   1.0000   1.0000   1.0000   1.0000   1.0000
     0.0000   0.0000   0.0000   0.0000   0.0000   0.0000   0.0000   0.0000

          k = 0.6667-0.3333 1.0000 (  1492 PWs)   bands (ev):

   -71.9666 -34.4979 -34.4620 -34.4429 -11.3619   2.9511   4.8210   5.7221
    20.7448  21.5423  24.4341  28.4392  30.6079  34.1148  39.3056  40.0228

     occupation numbers 
     1.0000   1.0000   1.0000   1.0000   1.0000   1.0000   1.0000   1.0000
     0.0000   0.0000   0.0000   0.0000   0.0000   0.0000   0.0000   0.0000

          k = 0.5000-0.1667 0.8333 (  1498 PWs)   bands (ev):

   -71.9653 -34.5010 -34.4720 -34.4490 -11.1239   2.8937   4.1395   5.4443
    21.1760  22.7526  23.6056  27.6582  31.8875  33.3185  39.3949  39.8920

     occupation numbers 
     1.0000   1.0000   1.0000   1.0000   1.0000   1.0000   1.0000   1.0000
     0.0000   0.0000   0.0000   0.0000   0.0000   0.0000   0.0000   0.0000

          k =-0.3333-1.0000 0.0000 (  1510 PWs)   bands (ev):

   -71.9645 -34.4983 -34.4717 -34.4602 -11.0664   2.9309   4.3864   5.0049
    20.9722  22.1985  23.4188  27.7183  31.6313  35.8915  37.7644  40.1404

     occupation numbers 
     1.0000   1.0000   1.0000   1.0000   1.0000   1.0000   1.0000   1.0000
     0.0000   0.0000   0.0000   0.0000   0.0000   0.0000   0.0000   0.0000

     highest occupied, lowest unoccupied level (ev):     6.8926   14.9476

!    total energy              =    -140.87373905 Ry
     estimated scf accuracy    <          9.5E-10 Ry

     convergence has been achieved in   4 iterations

     Using ACE for calculation of exact exchange
     ACE projected onto    16 (nbndproj) and applied to    16 (nbnd) bands

     total energy              =    -140.87375145 Ry
     Harris-Foulkes estimate   =    -140.87375145 Ry
     est. exchange err (dexx)  =       0.00001240 Ry
     - averaged Fock potential =      16.90193813 Ry
     + Fock energy (ACE)       =      -8.45201160 Ry

     EXX: now go back to refine exchange calculation

     total cpu time spent up to now is      383.8 secs

     Self-consistent Calculation

     iteration #  1     ecut=    80.00 Ry     beta= 0.70
     Davidson diagonalization with overlap

---- Real-time Memory Report at c_bands before calling an iterative solver
           205 MiB given to the printing process from OS
             0 MiB allocation reported by mallinfo(arena+hblkhd)
         11700 MiB available memory on the node where the printing process lives
------------------
     ethr =  3.44E-09,  avg # of iterations =  3.0

     total cpu time spent up to now is      383.9 secs

     total energy              =    -140.87375334 Ry
     estimated scf accuracy    <       0.00000030 Ry

     iteration #  2     ecut=    80.00 Ry     beta= 0.70
     Davidson diagonalization with overlap

---- Real-time Memory Report at c_bands before calling an iterative solver
           205 MiB given to the printing process from OS
             0 MiB allocation reported by mallinfo(arena+hblkhd)
         11700 MiB available memory on the node where the printing process lives
------------------
     ethr =  1.90E-09,  avg # of iterations =  1.3

     total cpu time spent up to now is      384.0 secs

     total energy              =    -140.87375335 Ry
     estimated scf accuracy    <       0.00000004 Ry

     iteration #  3     ecut=    80.00 Ry     beta= 0.70
     Davidson diagonalization with overlap

---- Real-time Memory Report at c_bands before calling an iterative solver
           205 MiB given to the printing process from OS
             0 MiB allocation reported by mallinfo(arena+hblkhd)
         11700 MiB available memory on the node where the printing process lives
------------------
     ethr =  2.49E-10,  avg # of iterations =  2.0

     total cpu time spent up to now is      384.1 secs

     total energy              =    -140.87375336 Ry
     estimated scf accuracy    <       0.00000002 Ry

     iteration #  4     ecut=    80.00 Ry     beta= 0.70
     Davidson diagonalization with overlap

---- Real-time Memory Report at c_bands before calling an iterative solver
           205 MiB given to the printing process from OS
             0 MiB allocation reported by mallinfo(arena+hblkhd)
         11700 MiB available memory on the node where the printing process lives
------------------
     ethr =  9.60E-11,  avg # of iterations =  1.8

     total cpu time spent up to now is      384.2 secs

     End of self-consistent calculation

          k = 0.0000 0.0000 0.0000 (  1459 PWs)   bands (ev):

   -71.9774 -34.4270 -34.4270 -34.4270 -12.7764   6.8893   6.8893   6.8893
    14.9600  26.4223  26.4223  26.4223  30.2522  32.5272  32.5272  36.0353

     occupation numbers 
     1.0000   1.0000   1.0000   1.0000   1.0000   1.0000   1.0000   1.0000
     0.0000   0.0000   0.0000   0.0000   0.0000   0.0000   0.0000   0.0000

          k =-0.1667 0.1667-0.1667 (  1489 PWs)   bands (ev):

   -71.9750 -34.4533 -34.4289 -34.4289 -12.4589   5.2540   6.6819   6.6819
    16.4874  24.0227  27.0817  27.0817  31.3256  31.3256  33.4086  36.4548

     occupation numbers 
     1.0000   1.0000   1.0000   1.0000   1.0000   1.0000   1.0000   1.0000
     0.0000   0.0000   0.0000   0.0000   0.0000   0.0000   0.0000   0.0000

          k =-0.3333 0.3333-0.3333 (  1501 PWs)   bands (ev):

   -71.9710 -34.5055 -34.4334 -34.4334 -11.7455   2.8098   6.3007   6.3007
    18.0842  23.1617  27.4736  27.4736  32.0407  32.0407  32.6530  40.5360

     occupation numbers 
     1.0000   1.0000   1.0000   1.0000   1.0000   1.0000   1.0000   1.0000
     0.0000   0.0000   0.0000   0.0000   0.0000   0.0000   0.0000   0.0000

          k = 0.5000-0.5000 0.5000 (  1502 PWs)   bands (ev):

   -71.9684 -34.5312 -34.4353 -34.4353 -11.3425   1.7354   6.1203   6.1203
    18.2499  23.7377  27.2495  27.2495  32.0007  33.8077  33.8077  39.9422

     occupation numbers 
     1.0000   1.0000   1.0000   1.0000   1.0000   1.0000   1.0000   1.0000
     0.0000   0.0000   0.0000   0.0000   0.0000   0.0000   0.0000   0.0000

          k = 0.0000 0.3333 0.0000 (  1491 PWs)   bands (ev):

   -71.9741 -34.4503 -34.4351 -34.4351 -12.3650   5.1688   6.4445   6.4446
    17.0223  23.1077  27.5167  27.5167  28.7379  33.4241  35.4627  37.2957

     occupation numbers 
     1.0000   1.0000   1.0000   1.0000   1.0000   1.0000   1.0000   1.0000
     0.0000   0.0000   0.0000   0.0000   0.0000   0.0000   0.0000   0.0000

          k =-0.1667 0.5000-0.1667 (  1484 PWs)   bands (ev):

   -71.9704 -34.4881 -34.4414 -34.4409 -11.8069   3.4724   5.9026   6.0670
    18.8534  22.0140  26.2420  28.2367  29.4459  33.9519  36.2012  40.4945

     occupation numbers 
     1.0000   1.0000   1.0000   1.0000   1.0000   1.0000   1.0000   1.0000
     0.0000   0.0000   0.0000   0.0000   0.0000   0.0000   0.0000   0.0000

          k = 0.6667-0.3333 0.6667 (  1493 PWs)   bands (ev):

   -71.9674 -34.5184 -34.4498 -34.4416 -11.2953   2.2428   5.2662   5.9140
    19.4547  23.1610  25.1088  28.0643  31.1407  34.6628  35.6075  40.7095

     occupation numbers 
     1.0000   1.0000   1.0000   1.0000   1.0000   1.0000   1.0000   1.0000
     0.0000   0.0000   0.0000   0.0000   0.0000   0.0000   0.0000   0.0000

          k = 0.5000-0.1667 0.5000 (  1499 PWs)   bands (ev):

   -71.9683 -34.5107 -34.4544 -34.4354 -11.4138   2.5523   5.1478   6.1208
    19.4962  22.9509  25.3939  28.1498  31.6908  32.4644  35.6428  41.1935

     occupation numbers 
     1.0000   1.0000   1.0000   1.0000   1.0000   1.0000   1.0000   1.0000
     0.0000   0.0000   0.0000   0.0000   0.0000   0.0000   0.0000   0.0000

          k = 0.3333 0.0000 0.3333 (  1492 PWs)   bands (ev):

   -71.9719 -34.4774 -34.4446 -34.4290 -12.0174   3.9941   5.8314   6.5052
    18.1977  22.7335  26.7000  28.3793  29.3167  32.2432  35.7272  38.1864

     occupation numbers 
     1.0000   1.0000   1.0000   1.0000   1.0000   1.0000   1.0000   1.0000
     0.0000   0.0000   0.0000   0.0000   0.0000   0.0000   0.0000   0.0000

          k = 0.0000 0.6667 0.0000 (  1479 PWs)   bands (ev):

   -71.9685 -34.4941 -34.4523 -34.4523 -11.5317   3.0721   5.6915   5.6915
    19.9698  20.2620  24.8501  29.5425  29.5425  35.9379  38.7755  40.8166

     occupation numbers 
     1.0000   1.0000   1.0000   1.0000   1.0000   1.0000   1.0000   1.0000
     0.0000   0.0000   0.0000   0.0000   0.0000   0.0000   0.0000   0.0000

          k = 0.8333-0.1667 0.8333 (  1501 PWs)   bands (ev):

   -71.9661 -34.5058 -34.4667 -34.4543 -11.1847   2.6844   4.7620   5.5369
    20.1299  21.5198  23.9254  29.6972  29.8336  37.2131  38.4009  40.3250

     occupation numbers 
     1.0000   1.0000   1.0000   1.0000   1.0000   1.0000   1.0000   1.0000
     0.0000   0.0000   0.0000   0.0000   0.0000   0.0000   0.0000   0.0000

          k = 0.6667-0.0000 0.6667 (  1516 PWs)   bands (ev):

   -71.9667 -34.4941 -34.4883 -34.4462 -11.1226   3.2967   3.4797   5.7386
    20.8300  23.0559  23.4687  29.0667  29.9065  34.1600  39.0991  39.8766

     occupation numbers 
     1.0000   1.0000   1.0000   1.0000   1.0000   1.0000   1.0000   1.0000
     0.0000   0.0000   0.0000   0.0000   0.0000   0.0000   0.0000   0.0000

          k = 0.0000-1.0000 0.0000 (  1524 PWs)   bands (ev):

   -71.9654 -34.5135 -34.4606 -34.4606 -11.1230   2.3479   5.3602   5.3602
    19.2914  20.5969  24.2472  30.5366  30.5366  36.9029  38.2621  42.1174

     occupation numbers 
     1.0000   1.0000   1.0000   1.0000   1.0000   1.0000   1.0000   1.0000
     0.0000   0.0000   0.0000   0.0000   0.0000   0.0000   0.0000   0.0000

          k = 0.6667-0.3333 1.0000 (  1492 PWs)   bands (ev):

   -71.9674 -34.4998 -34.4640 -34.4449 -11.3625   2.9525   4.8202   5.7203
    20.7498  21.5469  24.4378  28.4421  30.6105  34.1169  39.3076  40.0169

     occupation numbers 
     1.0000   1.0000   1.0000   1.0000   1.0000   1.0000   1.0000   1.0000
     0.0000   0.0000   0.0000   0.0000   0.0000   0.0000   0.0000   0.0000

          k = 0.5000-0.1667 0.8333 (  1498 PWs)   bands (ev):

   -71.9661 -34.5030 -34.4740 -34.4510 -11.1246   2.8948   4.1395   5.4426
    21.1808  22.7569  23.6096  27.6613  31.8897  33.3212  39.3957  39.8888

     occupation numbers 
     1.0000   1.0000   1.0000   1.0000   1.0000   1.0000   1.0000   1.0000
     0.0000   0.0000   0.0000   0.0000   0.0000   0.0000   0.0000   0.0000

          k =-0.3333-1.0000 0.0000 (  1510 PWs)   bands (ev):

   -71.9653 -34.5002 -34.4736 -34.4622 -11.0672   2.9318   4.3861   5.0037
    20.9769  22.2031  23.4230  27.7215  31.6344  35.8936  37.7651  40.1417

     occupation numbers 
     1.0000   1.0000   1.0000   1.0000   1.0000   1.0000   1.0000   1.0000
     0.0000   0.0000   0.0000   0.0000   0.0000   0.0000   0.0000   0.0000

     highest occupied, lowest unoccupied level (ev):     6.8893   14.9600

!    total energy              =    -140.87375336 Ry
     estimated scf accuracy    <          1.9E-11 Ry

     convergence has been achieved in   4 iterations

     Using ACE for calculation of exact exchange
     ACE projected onto    16 (nbndproj) and applied to    16 (nbnd) bands

     total energy              =    -140.87375365 Ry
     Harris-Foulkes estimate   =    -140.87375365 Ry
     est. exchange err (dexx)  =       0.00000029 Ry
     - averaged Fock potential =      16.90434782 Ry
     + Fock energy (ACE)       =      -8.45233652 Ry

     EXX: now go back to refine exchange calculation

     total cpu time spent up to now is      506.5 secs

     Self-consistent Calculation

     iteration #  1     ecut=    80.00 Ry     beta= 0.70
     Davidson diagonalization with overlap

---- Real-time Memory Report at c_bands before calling an iterative solver
           205 MiB given to the printing process from OS
             0 MiB allocation reported by mallinfo(arena+hblkhd)
         11700 MiB available memory on the node where the printing process lives
------------------
     ethr =  9.60E-11,  avg # of iterations =  2.9

     total cpu time spent up to now is      506.6 secs

     End of self-consistent calculation

          k = 0.0000 0.0000 0.0000 (  1459 PWs)   bands (ev):

   -71.9774 -34.4271 -34.4271 -34.4271 -12.7766   6.8884   6.8884   6.8884
    14.9619  26.4226  26.4226  26.4226  30.2528  32.5271  32.5271  36.0356

     occupation numbers 
     1.0000   1.0000   1.0000   1.0000   1.0000   1.0000   1.0000   1.0000
     0.0000   0.0000   0.0000   0.0000   0.0000   0.0000   0.0000   0.0000

          k =-0.1667 0.1667-0.1667 (  1489 PWs)   bands (ev):

   -71.9750 -34.4535 -34.4290 -34.4290 -12.4591   5.2537   6.6810   6.6810
    16.4887  24.0232  27.0820  27.0820  31.3256  31.3256  33.4090  36.4551

     occupation numbers 
     1.0000   1.0000   1.0000   1.0000   1.0000   1.0000   1.0000   1.0000
     0.0000   0.0000   0.0000   0.0000   0.0000   0.0000   0.0000   0.0000

          k =-0.3333 0.3333-0.3333 (  1501 PWs)   bands (ev):

   -71.9710 -34.5057 -34.4335 -34.4335 -11.7458   2.8098   6.2999   6.2999
    18.0853  23.1622  27.4739  27.4739  32.0410  32.0410  32.6535  40.5363

     occupation numbers 
     1.0000   1.0000   1.0000   1.0000   1.0000   1.0000   1.0000   1.0000
     0.0000   0.0000   0.0000   0.0000   0.0000   0.0000   0.0000   0.0000

          k = 0.5000-0.5000 0.5000 (  1502 PWs)   bands (ev):

   -71.9684 -34.5314 -34.4354 -34.4354 -11.3428   1.7355   6.1195   6.1195
    18.2510  23.7381  27.2497  27.2497  32.0012  33.8081  33.8081  39.9424

     occupation numbers 
     1.0000   1.0000   1.0000   1.0000   1.0000   1.0000   1.0000   1.0000
     0.0000   0.0000   0.0000   0.0000   0.0000   0.0000   0.0000   0.0000

          k = 0.0000 0.3333 0.0000 (  1491 PWs)   bands (ev):

   -71.9741 -34.4505 -34.4353 -34.4353 -12.3652   5.1685   6.4437   6.4437
    17.0234  23.1083  27.5170  27.5170  28.7382  33.4241  35.4631  37.2960

     occupation numbers 
     1.0000   1.0000   1.0000   1.0000   1.0000   1.0000   1.0000   1.0000
     0.0000   0.0000   0.0000   0.0000   0.0000   0.0000   0.0000   0.0000

          k =-0.1667 0.5000-0.1667 (  1484 PWs)   bands (ev):

   -71.9704 -34.4883 -34.4416 -34.4410 -11.8072   3.4723   5.9019   6.0662
    18.8542  22.0146  26.2424  28.2370  29.4462  33.9520  36.2015  40.4948

     occupation numbers 
     1.0000   1.0000   1.0000   1.0000   1.0000   1.0000   1.0000   1.0000
     0.0000   0.0000   0.0000   0.0000   0.0000   0.0000   0.0000   0.0000

          k = 0.6667-0.3333 0.6667 (  1493 PWs)   bands (ev):

   -71.9674 -34.5186 -34.4500 -34.4418 -11.2956   2.2428   5.2656   5.9132
    19.4555  23.1615  25.1093  28.0645  31.1411  34.6631  35.6079  40.7088

     occupation numbers 
     1.0000   1.0000   1.0000   1.0000   1.0000   1.0000   1.0000   1.0000
     0.0000   0.0000   0.0000   0.0000   0.0000   0.0000   0.0000   0.0000

          k = 0.5000-0.1667 0.5000 (  1499 PWs)   bands (ev):

   -71.9683 -34.5109 -34.4546 -34.4355 -11.4142   2.5523   5.1472   6.1200
    19.4971  22.9514  25.3943  28.1501  31.6911  32.4648  35.6431  41.1934

     occupation numbers 
     1.0000   1.0000   1.0000   1.0000   1.0000   1.0000   1.0000   1.0000
     0.0000   0.0000   0.0000   0.0000   0.0000   0.0000   0.0000   0.0000

          k = 0.3333 0.0000 0.3333 (  1492 PWs)   bands (ev):

   -71.9719 -34.4775 -34.4447 -34.4292 -12.0176   3.9940   5.8307   6.5044
    18.1986  22.7341  26.7004  28.3796  29.3169  32.2434  35.7276  38.1865

     occupation numbers 
     1.0000   1.0000   1.0000   1.0000   1.0000   1.0000   1.0000   1.0000
     0.0000   0.0000   0.0000   0.0000   0.0000   0.0000   0.0000   0.0000

          k = 0.0000 0.6667 0.0000 (  1479 PWs)   bands (ev):

   -71.9685 -34.4942 -34.4524 -34.4524 -11.5320   3.0720   5.6908   5.6908
    19.9705  20.2628  24.8505  29.5428  29.5428  35.9378  38.7758  40.8169

     occupation numbers 
     1.0000   1.0000   1.0000   1.0000   1.0000   1.0000   1.0000   1.0000
     0.0000   0.0000   0.0000   0.0000   0.0000   0.0000   0.0000   0.0000

          k = 0.8333-0.1667 0.8333 (  1501 PWs)   bands (ev):

   -71.9661 -34.5059 -34.4668 -34.4544 -11.1851   2.6843   4.7615   5.5362
    20.1306  21.5204  23.9259  29.6975  29.8340  37.2132  38.4010  40.3249

     occupation numbers 
     1.0000   1.0000   1.0000   1.0000   1.0000   1.0000   1.0000   1.0000
     0.0000   0.0000   0.0000   0.0000   0.0000   0.0000   0.0000   0.0000

          k = 0.6667-0.0000 0.6667 (  1516 PWs)   bands (ev):

   -71.9667 -34.4942 -34.4884 -34.4464 -11.1230   3.2965   3.4795   5.7379
    20.8307  23.0564  23.4692  29.0670  29.9070  34.1602  39.0995  39.8767

     occupation numbers 
     1.0000   1.0000   1.0000   1.0000   1.0000   1.0000   1.0000   1.0000
     0.0000   0.0000   0.0000   0.0000   0.0000   0.0000   0.0000   0.0000

          k = 0.0000-1.0000 0.0000 (  1524 PWs)   bands (ev):

   -71.9654 -34.5137 -34.4607 -34.4607 -11.1234   2.3479   5.3595   5.3595
    19.2922  20.5977  24.2477  30.5371  30.5371  36.9031  38.2619  42.1176

     occupation numbers 
     1.0000   1.0000   1.0000   1.0000   1.0000   1.0000   1.0000   1.0000
     0.0000   0.0000   0.0000   0.0000   0.0000   0.0000   0.0000   0.0000

          k = 0.6667-0.3333 1.0000 (  1492 PWs)   bands (ev):

   -71.9674 -34.5000 -34.4641 -34.4450 -11.3628   2.9524   4.8197   5.7196
    20.7505  21.5475  24.4383  28.4425  30.6108  34.1172  39.3079  40.0116

     occupation numbers 
     1.0000   1.0000   1.0000   1.0000   1.0000   1.0000   1.0000   1.0000
     0.0000   0.0000   0.0000   0.0000   0.0000   0.0000   0.0000   0.0000

          k = 0.5000-0.1667 0.8333 (  1498 PWs)   bands (ev):

   -71.9661 -34.5031 -34.4741 -34.4512 -11.1250   2.8947   4.1391   5.4420
    21.1815  22.7573  23.6101  27.6617  31.8900  33.3215  39.3957  39.8872

     occupation numbers 
     1.0000   1.0000   1.0000   1.0000   1.0000   1.0000   1.0000   1.0000
     0.0000   0.0000   0.0000   0.0000   0.0000   0.0000   0.0000   0.0000

          k =-0.3333-1.0000 0.0000 (  1510 PWs)   bands (ev):

   -71.9653 -34.5004 -34.4738 -34.4624 -11.0676   2.9317   4.3857   5.0031
    20.9775  22.2037  23.4234  27.7220  31.6348  35.8938  37.7651  40.1418

     occupation numbers 
     1.0000   1.0000   1.0000   1.0000   1.0000   1.0000   1.0000   1.0000
     0.0000   0.0000   0.0000   0.0000   0.0000   0.0000   0.0000   0.0000

     highest occupied, lowest unoccupied level (ev):     6.8884   14.9619

!    total energy              =    -140.87375370 Ry
     estimated scf accuracy    <          8.1E-09 Ry

     convergence has been achieved in   1 iterations

     Using ACE for calculation of exact exchange
     ACE projected onto    16 (nbndproj) and applied to    16 (nbnd) bands

!!   total energy              =    -140.87375371 Ry
     Harris-Foulkes estimate   =    -140.87375371 Ry
     est. exchange err (dexx)  =          7.0E-09 Ry
     - averaged Fock potential =      16.90474344 Ry
     + Fock energy (ACE)       =      -8.45240693 Ry

     EXX self-consistency reached

     Writing all to output data dir ./out6/mgo6.save/ :
     XML data file, charge density, pseudopotentials, collected wavefunctions

     init_run     :      0.16s CPU      0.16s WALL (       1 calls)
     electrons    :      2.42s CPU      2.51s WALL (       5 calls)

     Called by init_run:
     aceinit0     :      0.00s CPU      0.00s WALL (       1 calls)
     wfcinit      :      0.04s CPU      0.04s WALL (       1 calls)
     wfcinit:wfcr :      0.04s CPU      0.04s WALL (      16 calls)
     potinit      :      0.01s CPU      0.01s WALL (       1 calls)
     hinit0       :      0.10s CPU      0.10s WALL (       1 calls)

     Called by electrons:
     c_bands      :      2.08s CPU      2.15s WALL (      21 calls)
     sum_band     :      0.28s CPU      0.29s WALL (      21 calls)
     v_of_rho     :      0.06s CPU      0.06s WALL (      23 calls)
     v_h          :      0.00s CPU      0.00s WALL (      23 calls)
     v_xc         :      0.05s CPU      0.06s WALL (      23 calls)
     mix_rho      :      0.00s CPU      0.00s WALL (      21 calls)

     Called by c_bands:
     init_us_2    :      0.02s CPU      0.02s WALL (     688 calls)
     cegterg      :      2.03s CPU      2.09s WALL (     336 calls)

     Called by sum_band:
     sum_band:wei :      0.00s CPU      0.00s WALL (      21 calls)
     sum_band:loo :      0.27s CPU      0.28s WALL (      21 calls)
     sum_band:buf :      0.00s CPU      0.00s WALL (     336 calls)
     sum_band:ini :      0.01s CPU      0.01s WALL (     336 calls)

     Called by *egterg:
     cdiaghg      :      0.29s CPU      0.30s WALL (    1152 calls)
     cegterg:over :      0.11s CPU      0.11s WALL (     880 calls)
     cegterg:upda :      0.01s CPU      0.01s WALL (     880 calls)
     cegterg:last :      0.02s CPU      0.02s WALL (     740 calls)
     h_psi        :      1.50s CPU      1.55s WALL (    1232 calls)
     g_psi        :      0.01s CPU      0.01s WALL (     880 calls)

     Called by h_psi:
     h_psi:calbec :      0.07s CPU      0.07s WALL (    1232 calls)
     vloc_psi     :      1.36s CPU      1.40s WALL (    1232 calls)
                                        0.00s GPU  (    1232 calls)
     add_vuspsi   :      0.01s CPU      0.01s WALL (    1232 calls)

     General routines
     calbec       :      0.14s CPU      0.15s WALL (    2361 calls)
     fft          :      0.11s CPU      0.11s WALL (     223 calls)
     ffts         :      0.00s CPU      0.00s WALL (      21 calls)
     fftw         :      1.52s CPU      1.57s WALL (   34164 calls)
     fftc         :    522.65s CPU    537.86s WALL ( 8847360 calls)
     fftcw        :      0.24s CPU      0.27s WALL (    3840 calls)

     Parallel routines

     EXX routines
     exx_grid     :      0.01s CPU      0.01s WALL (       1 calls)
     exxinit      :      3.67s CPU      5.06s WALL (       5 calls)
     vexx         :    601.99s CPU    619.36s WALL (      80 calls)
     matcalc      :      0.07s CPU      0.08s WALL (    1129 calls)
     aceupdate    :      0.00s CPU      0.00s WALL (      80 calls)
     vexxace      :      0.07s CPU      0.08s WALL (     905 calls)
     aceinit      :    602.01s CPU    619.38s WALL (      80 calls)

     PWSCF        :  10m 8.39s CPU  10m27.30s WALL


   This run was terminated on:   6:31:16   1Jul2026            

=------------------------------------------------------------------------------=
   JOB DONE.
=------------------------------------------------------------------------------=
