
     Program PWSCF v.7.5 starts on 26Jun2026 at  5:54:30 

     This program is part of the open-source Quantum ESPRESSO suite
     for quantum simulation of materials; please cite
         "P. Giannozzi et al., J. Phys.:Condens. Matter 21 395502 (2009);
         "P. Giannozzi et al., J. Phys.:Condens. Matter 29 465901 (2017);
         "P. Giannozzi et al., J. Chem. Phys. 152 154105 (2020);
          URL http://www.quantum-espresso.org", 
     in publications or presentations arising from this work. More details at
     http://www.quantum-espresso.org/quote

     Parallel version (MPI & OpenMP), running on       4 processor cores
     Number of MPI processes:                 4
     Threads/MPI process:                     1

     MPI processes distributed on     1 nodes
     14211 MiB available memory on the printing compute node when the environment starts

     Reading input from caf2.qc.in

     Current dimensions of program PWSCF are:
     Max number of different atomic species (ntypx) = 10
     Max number of k-points (npk) =  40000
     Max angular momentum in pseudopotentials (lmaxx) =  4

     IMPORTANT: XC functional enforced from input :
     Exchange-correlation= HSE
                           (   1   4  12   4   0   0   0)
     EXX-fraction              =        0.25
     Any further DFT definition will be discarded
     Please, verify this is what you really want

     EXX Screening parameter changed:    0.7135000
     EXX fraction changed:   1.00
     DD-RSH-CAM (LMODELHF) semilocal: AEXX, BEXX =   0.4435  0.4774
     DD-RSH-CAM (LMODELHF) enabled
     AEXX =  0.4435   BEXX =  0.4774   mu(bohr^-1) =  0.7135

     R & G space division:  proc/nbgrp/npool/nimage =       4
     Subspace diagonalization in iterative solution of the eigenvalue problem:
     a serial algorithm will be used

     EXX: q-point mesh:     6    6    6
     EXX: setup a grid of 216 q-points centered on each k-point
     (k+q)-points:
   0.0000000   0.0000000   0.0000000         1    1
  -0.1666667   0.1666667  -0.1666667         2    1
  -0.3333333   0.3333333  -0.3333333         3    1
   0.5000000  -0.5000000   0.5000000         4    1
   0.3333333  -0.3333333   0.3333333         3   -1
   0.1666667  -0.1666667   0.1666667         2   -1
   0.1666667   0.1666667   0.1666667         2    3
   0.0000000   0.3333333   0.0000000         5    1
  -0.1666667   0.5000000  -0.1666667         6    1
   0.6666667  -0.3333333   0.6666667         7    1
   0.5000000  -0.1666667   0.5000000         8    1
   0.3333333   0.0000000   0.3333333         9    1
   0.3333333   0.3333333   0.3333333         3    3
   0.1666667   0.5000000   0.1666667         6    3
   0.0000000   0.6666667   0.0000000        10    1
   0.8333333  -0.1666667   0.8333333        11    1
   0.6666667   0.0000000   0.6666667        12    1
   0.5000000   0.1666667   0.5000000         8   -3
  -0.5000000  -0.5000000  -0.5000000         4    3
  -0.6666667  -0.3333333  -0.6666667         7    3
  -0.8333333  -0.1666667  -0.8333333        11    3
   0.0000000  -1.0000000   0.0000000        13    1
   0.8333333   0.1666667   0.8333333        11   -3
   0.6666667   0.3333333   0.6666667         7   -3
  -0.3333333  -0.3333333  -0.3333333         3   -3
  -0.5000000  -0.1666667  -0.5000000         8    3
  -0.6666667   0.0000000  -0.6666667        12   -1
  -0.8333333   0.1666667  -0.8333333        11   -1
   0.0000000  -0.6666667   0.0000000        10   -1
  -0.1666667  -0.5000000  -0.1666667         6   -3
  -0.1666667  -0.1666667  -0.1666667         2   -3
  -0.3333333   0.0000000  -0.3333333         9   -1
  -0.5000000   0.1666667  -0.5000000         8   -1
  -0.6666667   0.3333333  -0.6666667         7   -1
   0.1666667  -0.5000000   0.1666667         6   -1
   0.0000000  -0.3333333   0.0000000         5   -1
  -0.1666667  -0.1666667   0.1666667         2    4
  -0.3333333   0.0000000   0.0000000         5   -5
  -0.5000000   0.1666667  -0.1666667         6   -5
   0.3333333  -0.6666667   0.6666667         7   -5
   0.1666667  -0.5000000   0.5000000         8   -5
   0.0000000  -0.3333333   0.3333333         9   -5
   0.0000000   0.0000000   0.3333333         5   13
  -0.1666667   0.1666667   0.1666667         2   -2
  -0.3333333   0.3333333   0.0000000         9   13
  -0.5000000   0.5000000  -0.1666667         8   13
  -0.6666667   0.6666667  -0.3333333         7   13
   0.1666667  -0.1666667   0.5000000         6   13
   0.1666667   0.1666667   0.5000000         6  -16
   0.0000000   0.3333333   0.3333333         9   -6
  -0.1666667   0.5000000   0.1666667         6   -2
   0.6666667  -0.3333333   1.0000000        14    1
   0.5000000  -0.1666667   0.8333333        15    1
  -0.6666667   1.0000000  -0.3333333        14   13
  -0.6666667  -0.6666667  -0.3333333         7  -16
   0.1666667   0.5000000   0.5000000         8    7
  -1.0000000  -0.3333333  -0.6666667        14   -9
   0.8333333  -0.1666667  -0.8333333        11   -2
  -0.3333333  -1.0000000   0.0000000        16    1
   0.5000000   0.1666667   0.8333333        15   -3
  -0.5000000  -0.5000000  -0.1666667         8  -16
   0.3333333   0.6666667   0.6666667         7    7
  -0.8333333  -0.1666667  -0.5000000        15   -9
   0.0000000  -1.0000000   0.3333333        16   -9
   0.8333333   0.1666667  -0.8333333        11    4
   0.6666667   0.3333333   1.0000000        14   -3
  -0.3333333  -0.3333333   0.0000000         9   14
  -0.5000000  -0.1666667  -0.1666667         6    7
   0.3333333  -1.0000000   0.6666667        14   22
  -0.8333333   0.1666667  -0.5000000        15   10
  -1.0000000   0.3333333  -0.6666667        14   10
  -0.1666667  -0.5000000   0.1666667         6    4
  -0.3333333  -0.3333333   0.3333333         3    4
  -0.5000000  -0.1666667   0.1666667         6   -8
  -0.6666667   0.0000000   0.0000000        10   -5
   0.1666667  -0.8333333   0.8333333        11   -5
   0.0000000  -0.6666667   0.6666667        12   -5
  -0.1666667  -0.5000000   0.5000000         8    8
  -0.1666667  -0.1666667   0.5000000         6  -14
  -0.3333333   0.0000000   0.3333333         9    2
  -0.5000000   0.1666667   0.1666667         6    6
   0.3333333  -0.6666667   1.0000000        14   -5
   0.1666667  -0.5000000   0.8333333        15   -5
   1.0000000   0.6666667  -0.3333333        14   17
   0.0000000   0.0000000   0.6666667        10   13
  -0.1666667   0.1666667   0.5000000         6   15
  -0.3333333   0.3333333   0.3333333         3   -2
  -0.5000000   0.5000000   0.1666667         8  -15
  -0.6666667   0.6666667   0.0000000        12   13
  -0.8333333   0.8333333  -0.1666667        11   13
  -0.8333333  -0.8333333  -0.1666667        11  -16
  -1.0000000  -0.6666667  -0.3333333        14   18
  -0.1666667   0.5000000   0.5000000         8   -6
   0.6666667  -0.3333333  -0.6666667         7   -2
   0.5000000  -0.1666667  -0.8333333        15   -2
   0.3333333   0.0000000  -1.0000000        16   13
  -0.6666667  -0.6666667   0.0000000        12   14
   0.1666667   0.5000000   0.8333333        15    7
   0.0000000   0.6666667   0.6666667        12   -6
   0.8333333  -0.1666667  -0.5000000        15   12
   0.6666667   0.0000000  -0.6666667        12   -2
   0.5000000   0.1666667  -0.8333333        15    4
  -0.5000000  -0.5000000   0.1666667         8   14
   0.3333333   0.6666667   1.0000000        14    7
   0.1666667   0.8333333   0.8333333        11    7
  -1.0000000   0.0000000  -0.3333333        16   21
   0.8333333   0.1666667  -0.5000000        15  -11
   0.6666667   0.3333333  -0.6666667         7    4
   0.5000000   0.5000000  -0.5000000         4    4
   0.3333333   0.6666667  -0.6666667         7   -8
   0.1666667   0.8333333  -0.8333333        11   -8
  -1.0000000   0.0000000   0.0000000        13    5
  -0.1666667  -0.8333333   0.8333333        11    8
  -0.3333333  -0.6666667   0.6666667         7    8
   0.6666667   0.6666667  -0.3333333         7  -14
  -0.5000000  -0.1666667   0.5000000         8   -4
   0.3333333  -1.0000000  -0.6666667        14  -21
   0.1666667  -0.8333333  -0.8333333        11    6
   1.0000000   0.3333333   0.0000000        16   -5
  -0.1666667  -0.5000000   0.8333333        15    8
   0.8333333   0.8333333  -0.1666667        11  -14
   0.6666667   1.0000000  -0.3333333        14  -14
  -0.5000000   0.1666667   0.5000000         8    2
   0.3333333  -0.6666667  -0.6666667         7    6
   0.1666667  -0.5000000  -0.8333333        15    6
   0.0000000  -0.3333333  -1.0000000        16   17
   0.0000000   0.0000000  -1.0000000        13   13
   0.8333333  -0.8333333  -0.1666667        11   15
   0.6666667  -0.6666667  -0.3333333         7   15
  -0.5000000   0.5000000   0.5000000         4    2
  -0.6666667   0.6666667   0.3333333         7  -15
  -0.8333333   0.8333333   0.1666667        11  -15
  -0.8333333  -0.8333333   0.1666667        11   14
   0.0000000   0.3333333   1.0000000        16  -17
  -0.1666667   0.5000000   0.8333333        15   -6
  -0.3333333   0.6666667   0.6666667         7   -6
   0.5000000  -0.1666667  -0.5000000         8   -2
  -0.6666667  -1.0000000   0.3333333        14   14
  -0.6666667  -0.6666667   0.3333333         7   14
   0.1666667   0.5000000  -0.8333333        15   -8
  -1.0000000  -0.3333333   0.0000000        16    5
  -0.1666667   0.8333333   0.8333333        11   -6
  -0.3333333   1.0000000   0.6666667        14   21
   0.5000000   0.1666667  -0.5000000         8    4
   0.3333333   0.3333333  -0.3333333         3   -4
   0.1666667   0.5000000  -0.5000000         8   -8
   0.0000000   0.6666667  -0.6666667        12    5
  -0.1666667   0.8333333  -0.8333333        11    5
   0.6666667   0.0000000   0.0000000        10    5
   0.5000000   0.1666667  -0.1666667         6    8
   0.5000000   0.5000000  -0.1666667         8  -14
  -0.6666667  -0.3333333   0.6666667         7   -4
  -0.8333333  -0.1666667   0.5000000        15   11
   1.0000000   0.0000000   0.3333333        16  -21
  -0.1666667  -0.8333333  -0.8333333        11   -7
  -0.3333333  -0.6666667  -1.0000000        14   -7
   0.6666667   0.6666667   0.0000000        12  -14
  -0.5000000  -0.1666667   0.8333333        15   -4
  -0.6666667   0.0000000   0.6666667        12    2
  -0.8333333   0.1666667   0.5000000        15  -12
   0.0000000  -0.6666667  -0.6666667        12    6
  -0.1666667  -0.5000000  -0.8333333        15   -7
   0.8333333   0.8333333   0.1666667        11   16
  -0.3333333   0.0000000   1.0000000        16  -13
  -0.5000000   0.1666667   0.8333333        15    2
  -0.6666667   0.3333333   0.6666667         7    2
   0.1666667  -0.5000000  -0.5000000         8    6
   1.0000000   0.6666667   0.3333333        14  -18
   0.0000000   0.0000000  -0.6666667        10  -13
   0.8333333  -0.8333333   0.1666667        11  -13
   0.6666667  -0.6666667   0.0000000        12  -13
   0.5000000  -0.5000000  -0.1666667         8   15
   0.3333333  -0.3333333  -0.3333333         3    2
   0.1666667  -0.1666667  -0.5000000         6  -15
   0.1666667   0.1666667  -0.5000000         6   14
  -1.0000000  -0.6666667   0.3333333        14  -17
  -0.1666667   0.5000000  -0.8333333        15    5
  -0.3333333   0.6666667  -1.0000000        14    5
   0.5000000  -0.1666667  -0.1666667         6   -6
   0.3333333   0.0000000  -0.3333333         9   -2
   0.1666667   0.1666667  -0.1666667         2   -4
   0.0000000   0.3333333  -0.3333333         9    5
  -0.1666667   0.5000000  -0.5000000         8    5
  -0.3333333   0.6666667  -0.6666667         7    5
   0.5000000  -0.1666667   0.1666667         6    5
   0.3333333   0.0000000   0.0000000         5    5
   0.3333333   0.3333333   0.0000000         9  -14
   0.1666667   0.5000000  -0.1666667         6   -4
   1.0000000  -0.3333333   0.6666667        14  -10
   0.8333333  -0.1666667   0.5000000        15  -10
  -0.3333333   1.0000000  -0.6666667        14  -22
   0.5000000   0.1666667   0.1666667         6   -7
   0.5000000   0.5000000   0.1666667         8   16
  -0.6666667  -0.3333333  -1.0000000        14    3
  -0.8333333  -0.1666667   0.8333333        11   -4
   0.0000000   1.0000000  -0.3333333        16    9
   0.8333333   0.1666667   0.5000000        15    9
  -0.3333333  -0.6666667  -0.6666667         7   -7
   0.6666667   0.6666667   0.3333333         7   16
  -0.5000000  -0.1666667  -0.8333333        15    3
   0.3333333   1.0000000   0.0000000        16   -1
  -0.8333333   0.1666667   0.8333333        11    2
   1.0000000   0.3333333   0.6666667        14    9
  -0.1666667  -0.5000000  -0.5000000         8   -7
  -0.1666667  -0.1666667  -0.5000000         6   16
   0.6666667  -1.0000000   0.3333333        14  -13
  -0.5000000   0.1666667  -0.8333333        15   -1
  -0.6666667   0.3333333  -1.0000000        14   -1
   0.1666667  -0.5000000  -0.1666667         6    2
   0.0000000  -0.3333333  -0.3333333         9    6
   0.0000000   0.0000000  -0.3333333         5  -13
  -0.1666667   0.1666667  -0.5000000         6  -13
   0.6666667  -0.6666667   0.3333333         7  -13
   0.5000000  -0.5000000   0.1666667         8  -13
   0.3333333  -0.3333333   0.0000000         9  -13
   0.1666667  -0.1666667  -0.1666667         2    2

     Parallelization info
     --------------------
     sticks:   dense  smooth     PW     G-vecs:    dense   smooth      PW
     Min         289     289     87                 6614     6614    1068
     Max         290     290     88                 6619     6619    1071
     Sum        1159    1159    349                26469    26469    4279

     Using Slab Decomposition



     bravais-lattice index     =            2
     lattice parameter (alat)  =      10.3230  a.u.
     unit-cell volume          =     275.0159 (a.u.)^3
     number of atoms/cell      =            3
     number of atomic types    =            2
     number of electrons       =        24.00
     number of Kohn-Sham states=           20
     kinetic-energy cutoff     =      80.0000  Ry
     charge density cutoff     =     320.0000  Ry
     cutoff for Fock operator  =     320.0000  Ry
     scf convergence threshold =      1.0E-08
     mixing beta               =       0.7000
     number of iterations used =            8  plain     mixing
     Exchange-correlation= HSE
                           (   1   4  12   4   0   0   0)
     EXX-fraction              =        1.00

     celldm(1)=  10.323000  celldm(2)=   0.000000  celldm(3)=   0.000000
     celldm(4)=   0.000000  celldm(5)=   0.000000  celldm(6)=   0.000000

     crystal axes: (cart. coord. in units of alat)
               a(1) = (  -0.500000   0.000000   0.500000 )  
               a(2) = (   0.000000   0.500000   0.500000 )  
               a(3) = (  -0.500000   0.500000   0.000000 )  

     reciprocal axes: (cart. coord. in units 2 pi/alat)
               b(1) = ( -1.000000 -1.000000  1.000000 )  
               b(2) = (  1.000000  1.000000  1.000000 )  
               b(3) = ( -1.000000  1.000000 -1.000000 )  


     PseudoPot. # 1 for Ca read from file:
     ../../../../pseudos/Ca_ONCV_PBE-1.2.upf
     MD5 check sum: b43c970dc090f2312d256360aabdb6f1
     Pseudo is Norm-conserving, Zval = 10.0
     Generated using ONCVPSP code by D. R. Hamann
     Using radial grid of  602 points,  6 beta functions with: 
                l(1) =   0
                l(2) =   0
                l(3) =   1
                l(4) =   1
                l(5) =   2
                l(6) =   2

     PseudoPot. # 2 for F  read from file:
     ../../../../pseudos/F_ONCV_PBE-1.2.upf
     MD5 check sum: 1d8275f47d602dd53cad6bcdc0eda7dc
     Pseudo is Norm-conserving, Zval =  7.0
     Generated using ONCVPSP code by D. R. Hamann
     Using radial grid of  602 points,  4 beta functions with: 
                l(1) =   0
                l(2) =   0
                l(3) =   1
                l(4) =   1

     atomic species   valence    mass     pseudopotential
     Ca               10.00    40.07800     Ca( 1.00)
     F                 7.00    18.99800     F ( 1.00)

     48 Sym. Ops., with inversion, found


                                    s                        frac. trans.

      isym =  1     identity                                     

 cryst.   s( 1) = (     1          0          0      )
                  (     0          1          0      )
                  (     0          0          1      )

 cart.    s( 1) = (  1.0000000  0.0000000  0.0000000 )
                  (  0.0000000  1.0000000  0.0000000 )
                  (  0.0000000  0.0000000  1.0000000 )


      isym =  2     180 deg rotation - cart. axis [0,0,1]        

 cryst.   s( 2) = (     0          1         -1      )
                  (     1          0         -1      )
                  (     0          0         -1      )

 cart.    s( 2) = ( -1.0000000  0.0000000  0.0000000 )
                  (  0.0000000 -1.0000000  0.0000000 )
                  (  0.0000000  0.0000000  1.0000000 )


      isym =  3     180 deg rotation - cart. axis [0,1,0]        

 cryst.   s( 3) = (    -1          0          0      )
                  (    -1          0          1      )
                  (    -1          1          0      )

 cart.    s( 3) = ( -1.0000000  0.0000000  0.0000000 )
                  (  0.0000000  1.0000000  0.0000000 )
                  (  0.0000000  0.0000000 -1.0000000 )


      isym =  4     180 deg rotation - cart. axis [1,0,0]        

 cryst.   s( 4) = (     0         -1          1      )
                  (     0         -1          0      )
                  (     1         -1          0      )

 cart.    s( 4) = (  1.0000000  0.0000000  0.0000000 )
                  (  0.0000000 -1.0000000  0.0000000 )
                  (  0.0000000  0.0000000 -1.0000000 )


      isym =  5     180 deg rotation - cart. axis [1,1,0]        

 cryst.   s( 5) = (     0         -1          0      )
                  (    -1          0          0      )
                  (     0          0         -1      )

 cart.    s( 5) = (  0.0000000  1.0000000  0.0000000 )
                  (  1.0000000  0.0000000  0.0000000 )
                  (  0.0000000  0.0000000 -1.0000000 )


      isym =  6     180 deg rotation - cart. axis [1,-1,0]       

 cryst.   s( 6) = (    -1          0          1      )
                  (     0         -1          1      )
                  (     0          0          1      )

 cart.    s( 6) = (  0.0000000 -1.0000000  0.0000000 )
                  ( -1.0000000  0.0000000  0.0000000 )
                  (  0.0000000  0.0000000 -1.0000000 )


      isym =  7      90 deg rotation - cart. axis [0,0,-1]       

 cryst.   s( 7) = (     0          1          0      )
                  (     0          1         -1      )
                  (    -1          1          0      )

 cart.    s( 7) = (  0.0000000  1.0000000  0.0000000 )
                  ( -1.0000000  0.0000000  0.0000000 )
                  (  0.0000000  0.0000000  1.0000000 )


      isym =  8      90 deg rotation - cart. axis [0,0,1]        

 cryst.   s( 8) = (     1          0         -1      )
                  (     1          0          0      )
                  (     1         -1          0      )

 cart.    s( 8) = (  0.0000000 -1.0000000  0.0000000 )
                  (  1.0000000  0.0000000  0.0000000 )
                  (  0.0000000  0.0000000  1.0000000 )


      isym =  9     180 deg rotation - cart. axis [1,0,1]        

 cryst.   s( 9) = (    -1          0          0      )
                  (     0          0         -1      )
                  (     0         -1          0      )

 cart.    s( 9) = (  0.0000000  0.0000000  1.0000000 )
                  (  0.0000000 -1.0000000  0.0000000 )
                  (  1.0000000  0.0000000  0.0000000 )


      isym = 10     180 deg rotation - cart. axis [-1,0,1]       

 cryst.   s(10) = (     1          0          0      )
                  (     1         -1          0      )
                  (     1          0         -1      )

 cart.    s(10) = (  0.0000000  0.0000000 -1.0000000 )
                  (  0.0000000 -1.0000000  0.0000000 )
                  ( -1.0000000  0.0000000  0.0000000 )


      isym = 11      90 deg rotation - cart. axis [0,1,0]        

 cryst.   s(11) = (     0          1         -1      )
                  (    -1          1          0      )
                  (     0          1          0      )

 cart.    s(11) = (  0.0000000  0.0000000  1.0000000 )
                  (  0.0000000  1.0000000  0.0000000 )
                  ( -1.0000000  0.0000000  0.0000000 )


      isym = 12      90 deg rotation - cart. axis [0,-1,0]       

 cryst.   s(12) = (     0         -1          1      )
                  (     0          0          1      )
                  (    -1          0          1      )

 cart.    s(12) = (  0.0000000  0.0000000 -1.0000000 )
                  (  0.0000000  1.0000000  0.0000000 )
                  (  1.0000000  0.0000000  0.0000000 )


      isym = 13     180 deg rotation - cart. axis [0,1,1]        

 cryst.   s(13) = (    -1          1          0      )
                  (     0          1          0      )
                  (     0          1         -1      )

 cart.    s(13) = ( -1.0000000  0.0000000  0.0000000 )
                  (  0.0000000  0.0000000  1.0000000 )
                  (  0.0000000  1.0000000  0.0000000 )


      isym = 14     180 deg rotation - cart. axis [0,1,-1]       

 cryst.   s(14) = (     0          0         -1      )
                  (     0         -1          0      )
                  (    -1          0          0      )

 cart.    s(14) = ( -1.0000000  0.0000000  0.0000000 )
                  (  0.0000000  0.0000000 -1.0000000 )
                  (  0.0000000 -1.0000000  0.0000000 )


      isym = 15      90 deg rotation - cart. axis [-1,0,0]       

 cryst.   s(15) = (     0          0          1      )
                  (    -1          0          1      )
                  (     0         -1          1      )

 cart.    s(15) = (  1.0000000  0.0000000  0.0000000 )
                  (  0.0000000  0.0000000  1.0000000 )
                  (  0.0000000 -1.0000000  0.0000000 )


      isym = 16      90 deg rotation - cart. axis [1,0,0]        

 cryst.   s(16) = (     1         -1          0      )
                  (     1          0         -1      )
                  (     1          0          0      )

 cart.    s(16) = (  1.0000000  0.0000000  0.0000000 )
                  (  0.0000000  0.0000000 -1.0000000 )
                  (  0.0000000  1.0000000  0.0000000 )


      isym = 17     120 deg rotation - cart. axis [-1,-1,-1]     

 cryst.   s(17) = (    -1          0          1      )
                  (    -1          1          0      )
                  (    -1          0          0      )

 cart.    s(17) = (  0.0000000  1.0000000  0.0000000 )
                  (  0.0000000  0.0000000  1.0000000 )
                  (  1.0000000  0.0000000  0.0000000 )


      isym = 18     120 deg rotation - cart. axis [-1,1,1]       

 cryst.   s(18) = (     0          1          0      )
                  (     0          0          1      )
                  (     1          0          0      )

 cart.    s(18) = (  0.0000000 -1.0000000  0.0000000 )
                  (  0.0000000  0.0000000  1.0000000 )
                  ( -1.0000000  0.0000000  0.0000000 )


      isym = 19     120 deg rotation - cart. axis [1,1,-1]       

 cryst.   s(19) = (     1          0         -1      )
                  (     0          0         -1      )
                  (     0          1         -1      )

 cart.    s(19) = (  0.0000000  1.0000000  0.0000000 )
                  (  0.0000000  0.0000000 -1.0000000 )
                  ( -1.0000000  0.0000000  0.0000000 )


      isym = 20     120 deg rotation - cart. axis [1,-1,1]       

 cryst.   s(20) = (     0         -1          0      )
                  (     1         -1          0      )
                  (     0         -1          1      )

 cart.    s(20) = (  0.0000000 -1.0000000  0.0000000 )
                  (  0.0000000  0.0000000 -1.0000000 )
                  (  1.0000000  0.0000000  0.0000000 )


      isym = 21     120 deg rotation - cart. axis [1,1,1]        

 cryst.   s(21) = (     0          0         -1      )
                  (     0          1         -1      )
                  (     1          0         -1      )

 cart.    s(21) = (  0.0000000  0.0000000  1.0000000 )
                  (  1.0000000  0.0000000  0.0000000 )
                  (  0.0000000  1.0000000  0.0000000 )


      isym = 22     120 deg rotation - cart. axis [-1,1,-1]      

 cryst.   s(22) = (    -1          1          0      )
                  (    -1          0          0      )
                  (    -1          0          1      )

 cart.    s(22) = (  0.0000000  0.0000000  1.0000000 )
                  ( -1.0000000  0.0000000  0.0000000 )
                  (  0.0000000 -1.0000000  0.0000000 )


      isym = 23     120 deg rotation - cart. axis [1,-1,-1]      

 cryst.   s(23) = (     0          0          1      )
                  (     1          0          0      )
                  (     0          1          0      )

 cart.    s(23) = (  0.0000000  0.0000000 -1.0000000 )
                  ( -1.0000000  0.0000000  0.0000000 )
                  (  0.0000000  1.0000000  0.0000000 )


      isym = 24     120 deg rotation - cart. axis [-1,-1,1]      

 cryst.   s(24) = (     1         -1          0      )
                  (     0         -1          1      )
                  (     0         -1          0      )

 cart.    s(24) = (  0.0000000  0.0000000 -1.0000000 )
                  (  1.0000000  0.0000000  0.0000000 )
                  (  0.0000000 -1.0000000  0.0000000 )


      isym = 25     inversion                                    

 cryst.   s(25) = (    -1          0          0      )
                  (     0         -1          0      )
                  (     0          0         -1      )

 cart.    s(25) = ( -1.0000000  0.0000000  0.0000000 )
                  (  0.0000000 -1.0000000  0.0000000 )
                  (  0.0000000  0.0000000 -1.0000000 )


      isym = 26     inv. 180 deg rotation - cart. axis [0,0,1]   

 cryst.   s(26) = (     0         -1          1      )
                  (    -1          0          1      )
                  (     0          0          1      )

 cart.    s(26) = (  1.0000000  0.0000000  0.0000000 )
                  (  0.0000000  1.0000000  0.0000000 )
                  (  0.0000000  0.0000000 -1.0000000 )


      isym = 27     inv. 180 deg rotation - cart. axis [0,1,0]   

 cryst.   s(27) = (     1          0          0      )
                  (     1          0         -1      )
                  (     1         -1          0      )

 cart.    s(27) = (  1.0000000  0.0000000  0.0000000 )
                  (  0.0000000 -1.0000000  0.0000000 )
                  (  0.0000000  0.0000000  1.0000000 )


      isym = 28     inv. 180 deg rotation - cart. axis [1,0,0]   

 cryst.   s(28) = (     0          1         -1      )
                  (     0          1          0      )
                  (    -1          1          0      )

 cart.    s(28) = ( -1.0000000  0.0000000  0.0000000 )
                  (  0.0000000  1.0000000  0.0000000 )
                  (  0.0000000  0.0000000  1.0000000 )


      isym = 29     inv. 180 deg rotation - cart. axis [1,1,0]   

 cryst.   s(29) = (     0          1          0      )
                  (     1          0          0      )
                  (     0          0          1      )

 cart.    s(29) = (  0.0000000 -1.0000000  0.0000000 )
                  ( -1.0000000  0.0000000  0.0000000 )
                  (  0.0000000  0.0000000  1.0000000 )


      isym = 30     inv. 180 deg rotation - cart. axis [1,-1,0]  

 cryst.   s(30) = (     1          0         -1      )
                  (     0          1         -1      )
                  (     0          0         -1      )

 cart.    s(30) = (  0.0000000  1.0000000  0.0000000 )
                  (  1.0000000  0.0000000  0.0000000 )
                  (  0.0000000  0.0000000  1.0000000 )


      isym = 31     inv.  90 deg rotation - cart. axis [0,0,-1]  

 cryst.   s(31) = (     0         -1          0      )
                  (     0         -1          1      )
                  (     1         -1          0      )

 cart.    s(31) = (  0.0000000 -1.0000000  0.0000000 )
                  (  1.0000000  0.0000000  0.0000000 )
                  (  0.0000000  0.0000000 -1.0000000 )


      isym = 32     inv.  90 deg rotation - cart. axis [0,0,1]   

 cryst.   s(32) = (    -1          0          1      )
                  (    -1          0          0      )
                  (    -1          1          0      )

 cart.    s(32) = (  0.0000000  1.0000000  0.0000000 )
                  ( -1.0000000  0.0000000  0.0000000 )
                  (  0.0000000  0.0000000 -1.0000000 )


      isym = 33     inv. 180 deg rotation - cart. axis [1,0,1]   

 cryst.   s(33) = (     1          0          0      )
                  (     0          0          1      )
                  (     0          1          0      )

 cart.    s(33) = (  0.0000000  0.0000000 -1.0000000 )
                  (  0.0000000  1.0000000  0.0000000 )
                  ( -1.0000000  0.0000000  0.0000000 )


      isym = 34     inv. 180 deg rotation - cart. axis [-1,0,1]  

 cryst.   s(34) = (    -1          0          0      )
                  (    -1          1          0      )
                  (    -1          0          1      )

 cart.    s(34) = (  0.0000000  0.0000000  1.0000000 )
                  (  0.0000000  1.0000000  0.0000000 )
                  (  1.0000000  0.0000000  0.0000000 )


      isym = 35     inv.  90 deg rotation - cart. axis [0,1,0]   

 cryst.   s(35) = (     0         -1          1      )
                  (     1         -1          0      )
                  (     0         -1          0      )

 cart.    s(35) = (  0.0000000  0.0000000 -1.0000000 )
                  (  0.0000000 -1.0000000  0.0000000 )
                  (  1.0000000  0.0000000  0.0000000 )


      isym = 36     inv.  90 deg rotation - cart. axis [0,-1,0]  

 cryst.   s(36) = (     0          1         -1      )
                  (     0          0         -1      )
                  (     1          0         -1      )

 cart.    s(36) = (  0.0000000  0.0000000  1.0000000 )
                  (  0.0000000 -1.0000000  0.0000000 )
                  ( -1.0000000  0.0000000  0.0000000 )


      isym = 37     inv. 180 deg rotation - cart. axis [0,1,1]   

 cryst.   s(37) = (     1         -1          0      )
                  (     0         -1          0      )
                  (     0         -1          1      )

 cart.    s(37) = (  1.0000000  0.0000000  0.0000000 )
                  (  0.0000000  0.0000000 -1.0000000 )
                  (  0.0000000 -1.0000000  0.0000000 )


      isym = 38     inv. 180 deg rotation - cart. axis [0,1,-1]  

 cryst.   s(38) = (     0          0          1      )
                  (     0          1          0      )
                  (     1          0          0      )

 cart.    s(38) = (  1.0000000  0.0000000  0.0000000 )
                  (  0.0000000  0.0000000  1.0000000 )
                  (  0.0000000  1.0000000  0.0000000 )


      isym = 39     inv.  90 deg rotation - cart. axis [-1,0,0]  

 cryst.   s(39) = (     0          0         -1      )
                  (     1          0         -1      )
                  (     0          1         -1      )

 cart.    s(39) = ( -1.0000000  0.0000000  0.0000000 )
                  (  0.0000000  0.0000000 -1.0000000 )
                  (  0.0000000  1.0000000  0.0000000 )


      isym = 40     inv.  90 deg rotation - cart. axis [1,0,0]   

 cryst.   s(40) = (    -1          1          0      )
                  (    -1          0          1      )
                  (    -1          0          0      )

 cart.    s(40) = ( -1.0000000  0.0000000  0.0000000 )
                  (  0.0000000  0.0000000  1.0000000 )
                  (  0.0000000 -1.0000000  0.0000000 )


      isym = 41     inv. 120 deg rotation - cart. axis [-1,-1,-1]

 cryst.   s(41) = (     1          0         -1      )
                  (     1         -1          0      )
                  (     1          0          0      )

 cart.    s(41) = (  0.0000000 -1.0000000  0.0000000 )
                  (  0.0000000  0.0000000 -1.0000000 )
                  ( -1.0000000  0.0000000  0.0000000 )


      isym = 42     inv. 120 deg rotation - cart. axis [-1,1,1]  

 cryst.   s(42) = (     0         -1          0      )
                  (     0          0         -1      )
                  (    -1          0          0      )

 cart.    s(42) = (  0.0000000  1.0000000  0.0000000 )
                  (  0.0000000  0.0000000 -1.0000000 )
                  (  1.0000000  0.0000000  0.0000000 )


      isym = 43     inv. 120 deg rotation - cart. axis [1,1,-1]  

 cryst.   s(43) = (    -1          0          1      )
                  (     0          0          1      )
                  (     0         -1          1      )

 cart.    s(43) = (  0.0000000 -1.0000000  0.0000000 )
                  (  0.0000000  0.0000000  1.0000000 )
                  (  1.0000000  0.0000000  0.0000000 )


      isym = 44     inv. 120 deg rotation - cart. axis [1,-1,1]  

 cryst.   s(44) = (     0          1          0      )
                  (    -1          1          0      )
                  (     0          1         -1      )

 cart.    s(44) = (  0.0000000  1.0000000  0.0000000 )
                  (  0.0000000  0.0000000  1.0000000 )
                  ( -1.0000000  0.0000000  0.0000000 )


      isym = 45     inv. 120 deg rotation - cart. axis [1,1,1]   

 cryst.   s(45) = (     0          0          1      )
                  (     0         -1          1      )
                  (    -1          0          1      )

 cart.    s(45) = (  0.0000000  0.0000000 -1.0000000 )
                  ( -1.0000000  0.0000000  0.0000000 )
                  (  0.0000000 -1.0000000  0.0000000 )


      isym = 46     inv. 120 deg rotation - cart. axis [-1,1,-1] 

 cryst.   s(46) = (     1         -1          0      )
                  (     1          0          0      )
                  (     1          0         -1      )

 cart.    s(46) = (  0.0000000  0.0000000 -1.0000000 )
                  (  1.0000000  0.0000000  0.0000000 )
                  (  0.0000000  1.0000000  0.0000000 )


      isym = 47     inv. 120 deg rotation - cart. axis [1,-1,-1] 

 cryst.   s(47) = (     0          0         -1      )
                  (    -1          0          0      )
                  (     0         -1          0      )

 cart.    s(47) = (  0.0000000  0.0000000  1.0000000 )
                  (  1.0000000  0.0000000  0.0000000 )
                  (  0.0000000 -1.0000000  0.0000000 )


      isym = 48     inv. 120 deg rotation - cart. axis [-1,-1,1] 

 cryst.   s(48) = (    -1          1          0      )
                  (     0          1         -1      )
                  (     0          1          0      )

 cart.    s(48) = (  0.0000000  0.0000000  1.0000000 )
                  ( -1.0000000  0.0000000  0.0000000 )
                  (  0.0000000  1.0000000  0.0000000 )


     point group O_h (m-3m) 
     there are 10 classes
     the character table:

       E     8C3   3C2   6C4   6C2'  i     8S6   3s_h  6S4   6s_d 
A_1g   1.00  1.00  1.00  1.00  1.00  1.00  1.00  1.00  1.00  1.00
A_2g   1.00  1.00  1.00 -1.00 -1.00  1.00  1.00  1.00 -1.00 -1.00
E_g    2.00 -1.00  2.00  0.00  0.00  2.00 -1.00  2.00  0.00  0.00
T_1g   3.00  0.00 -1.00  1.00 -1.00  3.00  0.00 -1.00  1.00 -1.00
T_2g   3.00  0.00 -1.00 -1.00  1.00  3.00  0.00 -1.00 -1.00  1.00
A_1u   1.00  1.00  1.00  1.00  1.00 -1.00 -1.00 -1.00 -1.00 -1.00
A_2u   1.00  1.00  1.00 -1.00 -1.00 -1.00 -1.00 -1.00  1.00  1.00
E_u    2.00 -1.00  2.00  0.00  0.00 -2.00  1.00 -2.00  0.00  0.00
T_1u   3.00  0.00 -1.00  1.00 -1.00 -3.00  0.00  1.00 -1.00  1.00
T_2u   3.00  0.00 -1.00 -1.00  1.00 -3.00  0.00  1.00  1.00 -1.00

     the symmetry operations in each class and the name of the first element:

     E        1
          identity                                               
     8C3     17   19   20   18   24   21   22   23
          120 deg rotation - cart. axis [-1,-1,-1]               
     3C2      2    4    3
          180 deg rotation - cart. axis [0,0,1]                  
     6C4      7    8   15   16   12   11
           90 deg rotation - cart. axis [0,0,-1]                 
     6C2'     5    6   14   13   10    9
          180 deg rotation - cart. axis [1,1,0]                  
     i       25
          inversion                                              
     8S6     41   43   44   42   48   45   46   47
          inv. 120 deg rotation - cart. axis [-1,-1,-1]          
     3s_h    26   28   27
          inv. 180 deg rotation - cart. axis [0,0,1]             
     6S4     31   32   39   40   36   35
          inv.  90 deg rotation - cart. axis [0,0,-1]            
     6s_d    29   30   38   37   34   33
          inv. 180 deg rotation - cart. axis [1,1,0]             

   Cartesian axes

     site n.     atom                  positions (alat units)
         1        Ca     tau(   1) = (   0.0000000   0.0000000   0.0000000  )
         2        F      tau(   2) = (  -0.2500000   0.2500000   0.2500000  )
         3        F      tau(   3) = (  -0.7500000   0.7500000   0.7500000  )

   Crystallographic axes

     site n.     atom                  positions (cryst. coord.)
         1        Ca     tau(   1) = (  0.0000000  0.0000000  0.0000000  )
         2        F      tau(   2) = (  0.2500000  0.2500000  0.2500000  )
         3        F      tau(   3) = (  0.7500000  0.7500000  0.7500000  )

     number of k points=    16
                       cart. coord. in units 2pi/alat
        k(    1) = (   0.0000000   0.0000000   0.0000000), wk =   0.0092593
        k(    2) = (  -0.1666667   0.1666667  -0.1666667), wk =   0.0740741
        k(    3) = (  -0.3333333   0.3333333  -0.3333333), wk =   0.0740741
        k(    4) = (   0.5000000  -0.5000000   0.5000000), wk =   0.0370370
        k(    5) = (   0.0000000   0.3333333   0.0000000), wk =   0.0555556
        k(    6) = (  -0.1666667   0.5000000  -0.1666667), wk =   0.2222222
        k(    7) = (   0.6666667  -0.3333333   0.6666667), wk =   0.2222222
        k(    8) = (   0.5000000  -0.1666667   0.5000000), wk =   0.2222222
        k(    9) = (   0.3333333   0.0000000   0.3333333), wk =   0.1111111
        k(   10) = (   0.0000000   0.6666667   0.0000000), wk =   0.0555556
        k(   11) = (   0.8333333  -0.1666667   0.8333333), wk =   0.2222222
        k(   12) = (   0.6666667  -0.0000000   0.6666667), wk =   0.1111111
        k(   13) = (   0.0000000  -1.0000000   0.0000000), wk =   0.0277778
        k(   14) = (   0.6666667  -0.3333333   1.0000000), wk =   0.2222222
        k(   15) = (   0.5000000  -0.1666667   0.8333333), wk =   0.2222222
        k(   16) = (  -0.3333333  -1.0000000   0.0000000), wk =   0.1111111

                       cryst. coord.
        k(    1) = (   0.0000000   0.0000000   0.0000000), wk =   0.0092593
        k(    2) = (   0.0000000   0.0000000   0.1666667), wk =   0.0740741
        k(    3) = (   0.0000000   0.0000000   0.3333333), wk =   0.0740741
        k(    4) = (   0.0000000   0.0000000  -0.5000000), wk =   0.0370370
        k(    5) = (   0.0000000   0.1666667   0.1666667), wk =   0.0555556
        k(    6) = (   0.0000000   0.1666667   0.3333333), wk =   0.2222222
        k(    7) = (   0.0000000   0.1666667  -0.5000000), wk =   0.2222222
        k(    8) = (   0.0000000   0.1666667  -0.3333333), wk =   0.2222222
        k(    9) = (   0.0000000   0.1666667  -0.1666667), wk =   0.1111111
        k(   10) = (   0.0000000   0.3333333   0.3333333), wk =   0.0555556
        k(   11) = (   0.0000000   0.3333333  -0.5000000), wk =   0.2222222
        k(   12) = (   0.0000000   0.3333333  -0.3333333), wk =   0.1111111
        k(   13) = (   0.0000000  -0.5000000  -0.5000000), wk =   0.0277778
        k(   14) = (   0.1666667   0.3333333  -0.5000000), wk =   0.2222222
        k(   15) = (   0.1666667   0.3333333  -0.3333333), wk =   0.2222222
        k(   16) = (   0.1666667  -0.5000000  -0.3333333), wk =   0.1111111

     Dense  grid:    26469 G-vectors     FFT dimensions: (  45,  45,  45)

     Dynamical RAM for                 wfc:       0.25 MB

     Dynamical RAM for     wfc (w. buffer):       4.31 MB

     Dynamical RAM for                 EXX:     882.26 MB

     Dynamical RAM for           str. fact:       0.20 MB

     Dynamical RAM for           local pot:       0.00 MB

     Dynamical RAM for          nlocal pot:       0.43 MB

     Dynamical RAM for                qrad:       3.11 MB

     Dynamical RAM for          rho,v,vnew:       0.86 MB

     Dynamical RAM for               rhoin:       0.29 MB

     Dynamical RAM for            rho*nmix:       1.62 MB

     Dynamical RAM for           G-vectors:       0.43 MB

     Dynamical RAM for          h,s,v(r/c):       0.07 MB

     Dynamical RAM for          <psi|beta>:       0.01 MB

     Dynamical RAM for                 psi:       0.51 MB

     Dynamical RAM for                hpsi:       0.51 MB

     Dynamical RAM for      wfcinit/wfcrot:       0.52 MB

     Estimated static dynamical RAM per process >     893.12 MB

     Estimated max dynamical RAM per process >     895.83 MB

     Estimated total dynamical RAM >       3.50 GB
     EXX: ACE will be initialized later

     Initial potential from superposition of free atoms

     starting charge      23.7954, renormalised to      24.0000
     Starting wfcs are random

     total cpu time spent up to now is        0.2 secs

     Self-consistent Calculation

     iteration #  1     ecut=    80.00 Ry     beta= 0.70
     Davidson diagonalization with overlap

---- Real-time Memory Report at c_bands before calling an iterative solver
            72 MiB given to the printing process from OS
             0 MiB allocation reported by mallinfo(arena+hblkhd)
         14030 MiB available memory on the node where the printing process lives
------------------
     ethr =  1.00E-02,  avg # of iterations =  9.5

     Threshold (ethr) on eigenvalues was too large:
     Diagonalizing with lowered threshold

     Davidson diagonalization with overlap

---- Real-time Memory Report at c_bands before calling an iterative solver
            73 MiB given to the printing process from OS
             0 MiB allocation reported by mallinfo(arena+hblkhd)
         14154 MiB available memory on the node where the printing process lives
------------------
     ethr =  8.02E-04,  avg # of iterations =  1.1

     total cpu time spent up to now is        1.4 secs

     total energy              =    -169.75135724 Ry
     estimated scf accuracy    <       0.19796656 Ry

     iteration #  2     ecut=    80.00 Ry     beta= 0.70
     Davidson diagonalization with overlap

---- Real-time Memory Report at c_bands before calling an iterative solver
            76 MiB given to the printing process from OS
             0 MiB allocation reported by mallinfo(arena+hblkhd)
         14143 MiB available memory on the node where the printing process lives
------------------
     ethr =  8.25E-04,  avg # of iterations =  2.2

     total cpu time spent up to now is        1.7 secs

     total energy              =    -169.79497343 Ry
     estimated scf accuracy    <       0.14234377 Ry

     iteration #  3     ecut=    80.00 Ry     beta= 0.70
     Davidson diagonalization with overlap

---- Real-time Memory Report at c_bands before calling an iterative solver
            76 MiB given to the printing process from OS
             0 MiB allocation reported by mallinfo(arena+hblkhd)
         14142 MiB available memory on the node where the printing process lives
------------------
     ethr =  5.93E-04,  avg # of iterations =  2.0

     total cpu time spent up to now is        2.1 secs

     total energy              =    -169.82689986 Ry
     estimated scf accuracy    <       0.00187531 Ry

     iteration #  4     ecut=    80.00 Ry     beta= 0.70
     Davidson diagonalization with overlap

---- Real-time Memory Report at c_bands before calling an iterative solver
            76 MiB given to the printing process from OS
             0 MiB allocation reported by mallinfo(arena+hblkhd)
         14142 MiB available memory on the node where the printing process lives
------------------
     ethr =  7.81E-06,  avg # of iterations =  2.9

     total cpu time spent up to now is        2.4 secs

     total energy              =    -169.82714423 Ry
     estimated scf accuracy    <       0.00001703 Ry

     iteration #  5     ecut=    80.00 Ry     beta= 0.70
     Davidson diagonalization with overlap

---- Real-time Memory Report at c_bands before calling an iterative solver
            76 MiB given to the printing process from OS
             0 MiB allocation reported by mallinfo(arena+hblkhd)
         14013 MiB available memory on the node where the printing process lives
------------------
     ethr =  7.10E-08,  avg # of iterations =  2.3

     total cpu time spent up to now is        2.7 secs

     total energy              =    -169.82714745 Ry
     estimated scf accuracy    <       0.00000276 Ry

     iteration #  6     ecut=    80.00 Ry     beta= 0.70
     Davidson diagonalization with overlap

---- Real-time Memory Report at c_bands before calling an iterative solver
            77 MiB given to the printing process from OS
             0 MiB allocation reported by mallinfo(arena+hblkhd)
         14139 MiB available memory on the node where the printing process lives
------------------
     ethr =  1.15E-08,  avg # of iterations =  2.0

     total cpu time spent up to now is        3.0 secs

     total energy              =    -169.82714807 Ry
     estimated scf accuracy    <       0.00000007 Ry

     iteration #  7     ecut=    80.00 Ry     beta= 0.70
     Davidson diagonalization with overlap

---- Real-time Memory Report at c_bands before calling an iterative solver
            77 MiB given to the printing process from OS
             0 MiB allocation reported by mallinfo(arena+hblkhd)
         14139 MiB available memory on the node where the printing process lives
------------------
     ethr =  3.09E-10,  avg # of iterations =  2.0

     total cpu time spent up to now is        3.3 secs

     End of self-consistent calculation

          k = 0.0000 0.0000 0.0000 (  3287 PWs)   bands (ev):

   -32.6598 -16.4491 -15.6771 -13.5954 -13.5954 -13.5954   1.2982   1.2982
     1.2982   3.1350   3.1350   3.1350  10.7212  12.5687  12.5687  14.6025
    14.6025  14.6025  20.3999  20.3999

     occupation numbers 
     1.0000   1.0000   1.0000   1.0000   1.0000   1.0000   1.0000   1.0000
     1.0000   1.0000   1.0000   1.0000   0.0000   0.0000   0.0000   0.0000
     0.0000   0.0000   0.0000   0.0000

          k =-0.1667 0.1667-0.1667 (  3329 PWs)   bands (ev):

   -32.6516 -16.5160 -15.7500 -13.6057 -13.6057 -13.4733   1.4190   1.4190
     1.5125   2.8398   3.0131   3.0131  11.3901  12.6226  12.6226  14.3690
    14.5362  14.5362  19.2674  20.9742

     occupation numbers 
     1.0000   1.0000   1.0000   1.0000   1.0000   1.0000   1.0000   1.0000
     1.0000   1.0000   1.0000   1.0000   0.0000   0.0000   0.0000   0.0000
     0.0000   0.0000   0.0000   0.0000

          k =-0.3333 0.3333-0.3333 (  3305 PWs)   bands (ev):

   -32.6353 -16.5878 -15.9613 -13.6262 -13.6262 -13.2183   1.7013   1.7013
     1.9269   2.3539   2.7396   2.7396  12.5875  12.7280  12.7280  14.1890
    14.4035  14.4035  17.6852  22.3385

     occupation numbers 
     1.0000   1.0000   1.0000   1.0000   1.0000   1.0000   1.0000   1.0000
     1.0000   1.0000   1.0000   1.0000   0.0000   0.0000   0.0000   0.0000
     0.0000   0.0000   0.0000   0.0000

          k = 0.5000-0.5000 0.5000 (  3316 PWs)   bands (ev):

   -32.6270 -16.5862 -16.1032 -13.6364 -13.6364 -13.0884   1.8921   1.8921
     2.1114   2.1612   2.5586   2.5586  12.7789  12.7789  13.1466  14.1601
    14.3375  14.3375  17.1490  23.2528

     occupation numbers 
     1.0000   1.0000   1.0000   1.0000   1.0000   1.0000   1.0000   1.0000
     1.0000   1.0000   1.0000   1.0000   0.0000   0.0000   0.0000   0.0000
     0.0000   0.0000   0.0000   0.0000

          k = 0.0000 0.3333 0.0000 (  3327 PWs)   bands (ev):

   -32.6489 -16.5480 -15.7556 -13.6211 -13.6211 -13.4172   1.3807   1.3807
     1.7608   2.4149   3.1461   3.1461  11.6021  12.5018  12.7719  14.2654
    14.4975  14.4975  19.9265  20.5953

     occupation numbers 
     1.0000   1.0000   1.0000   1.0000   1.0000   1.0000   1.0000   1.0000
     1.0000   1.0000   1.0000   1.0000   0.0000   0.0000   0.0000   0.0000
     0.0000   0.0000   0.0000   0.0000

          k =-0.1667 0.5000-0.1667 (  3328 PWs)   bands (ev):

   -32.6353 -16.6171 -15.9201 -13.6441 -13.5912 -13.2472   1.5399   1.5531
     1.8681   2.2707   2.9944   3.0207  12.1357  12.9323  12.9725  13.8868
    14.3873  14.5502  18.6661  21.1943

     occupation numbers 
     1.0000   1.0000   1.0000   1.0000   1.0000   1.0000   1.0000   1.0000
     1.0000   1.0000   1.0000   1.0000   0.0000   0.0000   0.0000   0.0000
     0.0000   0.0000   0.0000   0.0000

          k = 0.6667-0.3333 0.6667 (  3321 PWs)   bands (ev):

   -32.6244 -16.5690 -16.1766 -13.6518 -13.5201 -13.1421   1.5109   1.7601
     1.8343   2.6538   2.6996   2.8338  12.2487  12.9356  13.2237  13.8382
    14.3111  15.2968  17.5319  21.9283

     occupation numbers 
     1.0000   1.0000   1.0000   1.0000   1.0000   1.0000   1.0000   1.0000
     1.0000   1.0000   1.0000   1.0000   0.0000   0.0000   0.0000   0.0000
     0.0000   0.0000   0.0000   0.0000

          k = 0.5000-0.1667 0.5000 (  3334 PWs)   bands (ev):

   -32.6271 -16.5570 -16.1497 -13.6366 -13.5022 -13.2045   1.4326   1.9163
     2.0321   2.4054   2.4167   3.0562  12.2994  12.7878  13.2300  13.8304
    14.3457  15.1172  17.8188  20.8573

     occupation numbers 
     1.0000   1.0000   1.0000   1.0000   1.0000   1.0000   1.0000   1.0000
     1.0000   1.0000   1.0000   1.0000   0.0000   0.0000   0.0000   0.0000
     0.0000   0.0000   0.0000   0.0000

          k = 0.3333 0.0000 0.3333 (  3325 PWs)   bands (ev):

   -32.6407 -16.5718 -15.8869 -13.6135 -13.5679 -13.3576   1.3828   1.6986
     1.9199   2.3496   2.6844   3.1623  12.0961  12.6348  12.8314  14.0433
    14.4609  14.5603  18.8094  20.4475

     occupation numbers 
     1.0000   1.0000   1.0000   1.0000   1.0000   1.0000   1.0000   1.0000
     1.0000   1.0000   1.0000   1.0000   0.0000   0.0000   0.0000   0.0000
     0.0000   0.0000   0.0000   0.0000

          k = 0.0000 0.6667 0.0000 (  3347 PWs)   bands (ev):

   -32.6272 -16.7191 -15.9075 -13.6723 -13.6723 -13.0791   1.2251   1.6004
     1.6004   2.7944   3.1001   3.1001  11.8201  13.2195  13.4371  14.1121
    14.3228  14.3228  19.9431  20.8779

     occupation numbers 
     1.0000   1.0000   1.0000   1.0000   1.0000   1.0000   1.0000   1.0000
     1.0000   1.0000   1.0000   1.0000   0.0000   0.0000   0.0000   0.0000
     0.0000   0.0000   0.0000   0.0000

          k = 0.8333-0.1667 0.8333 (  3314 PWs)   bands (ev):

   -32.6190 -16.6982 -16.0893 -13.6825 -13.5793 -13.0283   0.9601   1.6821
     1.7698   2.9289   3.0015   3.1903  11.7340  13.1322  13.2792  13.9001
    14.2679  16.1290  18.7827  19.7757

     occupation numbers 
     1.0000   1.0000   1.0000   1.0000   1.0000   1.0000   1.0000   1.0000
     1.0000   1.0000   1.0000   1.0000   0.0000   0.0000   0.0000   0.0000
     0.0000   0.0000   0.0000   0.0000

          k = 0.6667-0.0000 0.6667 (  3318 PWs)   bands (ev):

   -32.6189 -16.4763 -16.3704 -13.6648 -13.3724 -13.1935   1.1249   1.6689
     2.0070   2.5619   2.8571   3.2341  11.9194  13.0521  13.2334  13.6232
    14.2741  16.7503  18.5745  18.7333

     occupation numbers 
     1.0000   1.0000   1.0000   1.0000   1.0000   1.0000   1.0000   1.0000
     1.0000   1.0000   1.0000   1.0000   0.0000   0.0000   0.0000   0.0000
     0.0000   0.0000   0.0000   0.0000

          k = 0.0000-1.0000 0.0000 (  3306 PWs)   bands (ev):

   -32.6163 -16.7945 -15.9811 -13.6977 -13.6977 -12.9155   0.7068   1.7513
     1.7513   3.0288   3.0288   3.3900  11.5275  12.9201  13.4693  14.2520
    14.2520  16.7294  18.2297  20.1619

     occupation numbers 
     1.0000   1.0000   1.0000   1.0000   1.0000   1.0000   1.0000   1.0000
     1.0000   1.0000   1.0000   1.0000   0.0000   0.0000   0.0000   0.0000
     0.0000   0.0000   0.0000   0.0000

          k = 0.6667-0.3333 1.0000 (  3317 PWs)   bands (ev):

   -32.6244 -16.6116 -16.1235 -13.6642 -13.4857 -13.1745   1.3868   1.4632
     1.9282   2.6686   2.7860   3.1430  11.9933  13.0142  13.4914  13.5222
    14.3214  15.3809  18.7314  20.1715

     occupation numbers 
     1.0000   1.0000   1.0000   1.0000   1.0000   1.0000   1.0000   1.0000
     1.0000   1.0000   1.0000   1.0000   0.0000   0.0000   0.0000   0.0000
     0.0000   0.0000   0.0000   0.0000

          k = 0.5000-0.1667 0.8333 (  3314 PWs)   bands (ev):

   -32.6189 -16.4805 -16.3657 -13.6783 -13.3390 -13.2139   1.3153   1.3466
     2.2345   2.3944   3.0534   3.1082  11.9623  13.0402  13.2995  13.5218
    14.2828  16.6729  18.0076  20.3459

     occupation numbers 
     1.0000   1.0000   1.0000   1.0000   1.0000   1.0000   1.0000   1.0000
     1.0000   1.0000   1.0000   1.0000   0.0000   0.0000   0.0000   0.0000
     0.0000   0.0000   0.0000   0.0000

          k =-0.3333-1.0000 0.0000 (  3322 PWs)   bands (ev):

   -32.6162 -16.6278 -16.2319 -13.6995 -13.4536 -13.0732   0.9515   1.4833
     2.0449   2.6814   3.0852   3.3287  11.7538  13.0976  13.2373  13.6680
    14.2667  17.9409  18.0062  19.2060

     occupation numbers 
     1.0000   1.0000   1.0000   1.0000   1.0000   1.0000   1.0000   1.0000
     1.0000   1.0000   1.0000   1.0000   0.0000   0.0000   0.0000   0.0000
     0.0000   0.0000   0.0000   0.0000

     highest occupied, lowest unoccupied level (ev):     3.3900   10.7212

!    total energy              =    -169.82714808 Ry
     estimated scf accuracy    <          3.6E-09 Ry

     convergence has been achieved in   7 iterations

     Using ACE for calculation of exact exchange

     EXX grid:    26469 G-vectors     FFT dimensions: (  45,  45,  45)
     ACE projected onto    20 (nbndproj) and applied to    20 (nbnd) bands

     EXX: now go back to refine exchange calculation

     total cpu time spent up to now is      742.3 secs

     Self-consistent Calculation

     iteration #  1     ecut=    80.00 Ry     beta= 0.70
     Davidson diagonalization with overlap

---- Real-time Memory Report at c_bands before calling an iterative solver
          1891 MiB given to the printing process from OS
             0 MiB allocation reported by mallinfo(arena+hblkhd)
          6938 MiB available memory on the node where the printing process lives
------------------
     ethr =  3.09E-10,  avg # of iterations =  7.9

     total cpu time spent up to now is      743.2 secs

     total energy              =    -169.90208198 Ry
     estimated scf accuracy    <       0.00575541 Ry

     iteration #  2     ecut=    80.00 Ry     beta= 0.70
     Davidson diagonalization with overlap

---- Real-time Memory Report at c_bands before calling an iterative solver
          1891 MiB given to the printing process from OS
             0 MiB allocation reported by mallinfo(arena+hblkhd)
          6934 MiB available memory on the node where the printing process lives
------------------
     ethr =  2.40E-05,  avg # of iterations =  2.0

     total cpu time spent up to now is      743.5 secs

     total energy              =    -169.90355016 Ry
     estimated scf accuracy    <       0.00167601 Ry

     iteration #  3     ecut=    80.00 Ry     beta= 0.70
     Davidson diagonalization with overlap

---- Real-time Memory Report at c_bands before calling an iterative solver
          1891 MiB given to the printing process from OS
             0 MiB allocation reported by mallinfo(arena+hblkhd)
          6933 MiB available memory on the node where the printing process lives
------------------
     ethr =  6.98E-06,  avg # of iterations =  2.0

     total cpu time spent up to now is      743.9 secs

     total energy              =    -169.90393387 Ry
     estimated scf accuracy    <       0.00002800 Ry

     iteration #  4     ecut=    80.00 Ry     beta= 0.70
     Davidson diagonalization with overlap

---- Real-time Memory Report at c_bands before calling an iterative solver
          1891 MiB given to the printing process from OS
             0 MiB allocation reported by mallinfo(arena+hblkhd)
          6933 MiB available memory on the node where the printing process lives
------------------
     ethr =  1.17E-07,  avg # of iterations =  1.1

     total cpu time spent up to now is      744.2 secs

     total energy              =    -169.90393642 Ry
     estimated scf accuracy    <       0.00000030 Ry

     iteration #  5     ecut=    80.00 Ry     beta= 0.70
     Davidson diagonalization with overlap

---- Real-time Memory Report at c_bands before calling an iterative solver
          1891 MiB given to the printing process from OS
             0 MiB allocation reported by mallinfo(arena+hblkhd)
          6932 MiB available memory on the node where the printing process lives
------------------
     ethr =  1.26E-09,  avg # of iterations =  2.0

     total cpu time spent up to now is      744.5 secs

     total energy              =    -169.90393647 Ry
     estimated scf accuracy    <       0.00000001 Ry

     iteration #  6     ecut=    80.00 Ry     beta= 0.70
     Davidson diagonalization with overlap

---- Real-time Memory Report at c_bands before calling an iterative solver
          1891 MiB given to the printing process from OS
             0 MiB allocation reported by mallinfo(arena+hblkhd)
          6931 MiB available memory on the node where the printing process lives
------------------
     ethr =  5.19E-11,  avg # of iterations =  2.0

     total cpu time spent up to now is      744.9 secs

     End of self-consistent calculation

          k = 0.0000 0.0000 0.0000 (  3287 PWs)   bands (ev):

   -40.0863 -23.5219 -22.7227 -18.1113 -18.1113 -18.1113  -2.5649  -2.5649
    -2.5649  -0.5373  -0.5373  -0.5373  11.9814  15.0363  15.0363  17.4970
    17.4970  17.4970  22.0608  22.0608

     occupation numbers 
     1.0000   1.0000   1.0000   1.0000   1.0000   1.0000   1.0000   1.0000
     1.0000   1.0000   1.0000   1.0000   0.0000   0.0000   0.0000   0.0000
     0.0000   0.0000   0.0000   0.0000

          k =-0.1667 0.1667-0.1667 (  3329 PWs)   bands (ev):

   -40.0768 -23.5466 -22.7936 -18.1250 -18.1249 -18.0366  -2.4309  -2.4309
    -2.3287  -0.8525  -0.6708  -0.6708  12.6999  15.0906  15.0912  17.2003
    17.4153  17.4154  20.9296  22.7270

     occupation numbers 
     1.0000   1.0000   1.0000   1.0000   1.0000   1.0000   1.0000   1.0000
     1.0000   1.0000   1.0000   1.0000   0.0000   0.0000   0.0000   0.0000
     0.0000   0.0000   0.0000   0.0000

          k =-0.3333 0.3333-0.3333 (  3305 PWs)   bands (ev):

   -40.0578 -23.5399 -22.9997 -18.1521 -18.1520 -17.8702  -2.1125  -2.1125
    -1.8730  -1.3952  -0.9792  -0.9792  14.1464  15.2091  15.2101  16.7264
    17.2536  17.2536  19.4861  24.3328

     occupation numbers 
     1.0000   1.0000   1.0000   1.0000   1.0000   1.0000   1.0000   1.0000
     1.0000   1.0000   1.0000   1.0000   0.0000   0.0000   0.0000   0.0000
     0.0000   0.0000   0.0000   0.0000

          k = 0.5000-0.5000 0.5000 (  3316 PWs)   bands (ev):

   -40.0483 -23.4781 -23.1643 -18.1655 -18.1655 -17.7798  -1.8880  -1.8880
    -1.6886  -1.5999  -1.1944  -1.1944  15.2733  15.2733  15.5557  15.5994
    17.1728  17.1728  19.3264  25.4453

     occupation numbers 
     1.0000   1.0000   1.0000   1.0000   1.0000   1.0000   1.0000   1.0000
     1.0000   1.0000   1.0000   1.0000   0.0000   0.0000   0.0000   0.0000
     0.0000   0.0000   0.0000   0.0000

          k = 0.0000 0.3333 0.0000 (  3327 PWs)   bands (ev):

   -40.0737 -23.5639 -22.8041 -18.1449 -18.1448 -17.9846  -2.4769  -2.4769
    -2.0493  -1.3118  -0.5276  -0.5276  12.9311  14.8817  15.2991  17.0688
    17.3713  17.3716  21.6663  22.3678

     occupation numbers 
     1.0000   1.0000   1.0000   1.0000   1.0000   1.0000   1.0000   1.0000
     1.0000   1.0000   1.0000   1.0000   0.0000   0.0000   0.0000   0.0000
     0.0000   0.0000   0.0000   0.0000

          k =-0.1667 0.5000-0.1667 (  3328 PWs)   bands (ev):

   -40.0578 -23.5774 -22.9521 -18.1750 -18.1382 -17.8717  -2.2973  -2.2871
    -1.9270  -1.4856  -0.6939  -0.6670  13.8754  15.0655  15.4975  16.5649
    17.2425  17.3478  20.5173  23.1500

     occupation numbers 
     1.0000   1.0000   1.0000   1.0000   1.0000   1.0000   1.0000   1.0000
     1.0000   1.0000   1.0000   1.0000   0.0000   0.0000   0.0000   0.0000
     0.0000   0.0000   0.0000   0.0000

          k = 0.6667-0.3333 0.6667 (  3321 PWs)   bands (ev):

   -40.0451 -23.4827 -23.1891 -18.1853 -18.0921 -17.8170  -2.3151  -2.0753
    -1.9692  -1.0626  -1.0254  -0.8787  14.2700  15.4854  15.6654  16.2615
    17.1481  17.6142  19.6433  24.2189

     occupation numbers 
     1.0000   1.0000   1.0000   1.0000   1.0000   1.0000   1.0000   1.0000
     1.0000   1.0000   1.0000   1.0000   0.0000   0.0000   0.0000   0.0000
     0.0000   0.0000   0.0000   0.0000

          k = 0.5000-0.1667 0.5000 (  3334 PWs)   bands (ev):

   -40.0483 -23.4923 -23.1489 -18.1657 -18.0795 -17.8671  -2.4108  -1.8926
    -1.7421  -1.3508  -1.3339  -0.6279  14.2271  15.2779  15.6006  16.4145
    17.1850  17.5865  19.8140  22.9651

     occupation numbers 
     1.0000   1.0000   1.0000   1.0000   1.0000   1.0000   1.0000   1.0000
     1.0000   1.0000   1.0000   1.0000   0.0000   0.0000   0.0000   0.0000
     0.0000   0.0000   0.0000   0.0000

          k = 0.3333 0.0000 0.3333 (  3325 PWs)   bands (ev):

   -40.0642 -23.5582 -22.9126 -18.1355 -18.1197 -17.9604  -2.4719  -2.1196
    -1.8791  -1.3955  -1.0300  -0.5109  13.5592  15.0835  15.2550  16.8102
    17.3225  17.3780  20.5950  22.2999

     occupation numbers 
     1.0000   1.0000   1.0000   1.0000   1.0000   1.0000   1.0000   1.0000
     1.0000   1.0000   1.0000   1.0000   0.0000   0.0000   0.0000   0.0000
     0.0000   0.0000   0.0000   0.0000

          k = 0.0000 0.6667 0.0000 (  3347 PWs)   bands (ev):

   -40.0484 -23.6428 -22.9620 -18.2113 -18.2113 -17.7274  -2.6289  -2.2447
    -2.2447  -0.9079  -0.5758  -0.5758  13.7334  15.8677  15.8944  16.0330
    17.1783  17.1784  22.0184  22.8741

     occupation numbers 
     1.0000   1.0000   1.0000   1.0000   1.0000   1.0000   1.0000   1.0000
     1.0000   1.0000   1.0000   1.0000   0.0000   0.0000   0.0000   0.0000
     0.0000   0.0000   0.0000   0.0000

          k = 0.8333-0.1667 0.8333 (  3314 PWs)   bands (ev):

   -40.0389 -23.6017 -23.1078 -18.2247 -18.1599 -17.6971  -2.9325  -2.1566
    -2.0602  -0.7605  -0.6842  -0.4780  13.6537  15.6474  15.9640  16.4405
    17.1143  18.2690  20.9512  21.9646

     occupation numbers 
     1.0000   1.0000   1.0000   1.0000   1.0000   1.0000   1.0000   1.0000
     1.0000   1.0000   1.0000   1.0000   0.0000   0.0000   0.0000   0.0000
     0.0000   0.0000   0.0000   0.0000

          k = 0.6667-0.0000 0.6667 (  3318 PWs)   bands (ev):

   -40.0389 -23.4036 -23.3312 -18.2021 -18.0081 -17.8456  -2.7581  -2.1646
    -1.7924  -1.1629  -0.8535  -0.4276  13.8609  15.6356  15.7048  16.2266
    17.1096  19.0238  20.7193  20.8382

     occupation numbers 
     1.0000   1.0000   1.0000   1.0000   1.0000   1.0000   1.0000   1.0000
     1.0000   1.0000   1.0000   1.0000   0.0000   0.0000   0.0000   0.0000
     0.0000   0.0000   0.0000   0.0000

          k = 0.0000-1.0000 0.0000 (  3306 PWs)   bands (ev):

   -40.0357 -23.6799 -23.0386 -18.2442 -18.2442 -17.5962  -3.2104  -2.0880
    -2.0880  -0.6470  -0.6470  -0.2625  13.4076  15.4054  16.2392  17.1063
    17.1063  18.4580  20.5244  22.4014

     occupation numbers 
     1.0000   1.0000   1.0000   1.0000   1.0000   1.0000   1.0000   1.0000
     1.0000   1.0000   1.0000   1.0000   0.0000   0.0000   0.0000   0.0000
     0.0000   0.0000   0.0000   0.0000

          k = 0.6667-0.3333 1.0000 (  3317 PWs)   bands (ev):

   -40.0452 -23.5437 -23.1184 -18.2020 -18.0793 -17.8232  -2.4453  -2.4058
    -1.8772  -1.0553  -0.9215  -0.5283  13.9239  15.5324  15.8704  16.0960
    17.1729  17.8044  20.7877  22.2460

     occupation numbers 
     1.0000   1.0000   1.0000   1.0000   1.0000   1.0000   1.0000   1.0000
     1.0000   1.0000   1.0000   1.0000   0.0000   0.0000   0.0000   0.0000
     0.0000   0.0000   0.0000   0.0000

          k = 0.5000-0.1667 0.8333 (  3314 PWs)   bands (ev):

   -40.0388 -23.4059 -23.3287 -18.2201 -17.9620 -17.8737  -2.5796  -2.4850
    -1.5338  -1.3679  -0.6260  -0.5682  13.9146  15.6180  15.8110  16.0472
    17.1319  18.9029  20.1620  22.6111

     occupation numbers 
     1.0000   1.0000   1.0000   1.0000   1.0000   1.0000   1.0000   1.0000
     1.0000   1.0000   1.0000   1.0000   0.0000   0.0000   0.0000   0.0000
     0.0000   0.0000   0.0000   0.0000

          k =-0.3333-1.0000 0.0000 (  3322 PWs)   bands (ev):

   -40.0357 -23.5350 -23.2164 -18.2465 -18.0632 -17.7413  -2.9527  -2.3661
    -1.7583  -1.0405  -0.5846  -0.3295  13.6747  15.5917  15.8978  16.2308
    17.1260  20.0886  20.2670  21.3505

     occupation numbers 
     1.0000   1.0000   1.0000   1.0000   1.0000   1.0000   1.0000   1.0000
     1.0000   1.0000   1.0000   1.0000   0.0000   0.0000   0.0000   0.0000
     0.0000   0.0000   0.0000   0.0000

     highest occupied, lowest unoccupied level (ev):    -0.2625   11.9814

!    total energy              =    -169.90393647 Ry
     estimated scf accuracy    <          1.9E-09 Ry

     convergence has been achieved in   6 iterations

     Using ACE for calculation of exact exchange
     ACE projected onto    20 (nbndproj) and applied to    20 (nbnd) bands

     total energy              =    -169.90636084 Ry
     Harris-Foulkes estimate   =    -169.90636084 Ry
     est. exchange err (dexx)  =       0.00242436 Ry
     - averaged Fock potential =      25.05546569 Ry
     + Fock energy (ACE)       =     -12.55919244 Ry

     EXX: now go back to refine exchange calculation

     total cpu time spent up to now is     1458.2 secs

     Self-consistent Calculation

     iteration #  1     ecut=    80.00 Ry     beta= 0.70
     Davidson diagonalization with overlap

---- Real-time Memory Report at c_bands before calling an iterative solver
          1891 MiB given to the printing process from OS
             0 MiB allocation reported by mallinfo(arena+hblkhd)
          6959 MiB available memory on the node where the printing process lives
------------------
     ethr =  5.19E-11,  avg # of iterations =  6.2

     total cpu time spent up to now is     1458.8 secs

     total energy              =    -169.90670187 Ry
     estimated scf accuracy    <       0.00015213 Ry

     iteration #  2     ecut=    80.00 Ry     beta= 0.70
     Davidson diagonalization with overlap

---- Real-time Memory Report at c_bands before calling an iterative solver
          1891 MiB given to the printing process from OS
             0 MiB allocation reported by mallinfo(arena+hblkhd)
          6946 MiB available memory on the node where the printing process lives
------------------
     ethr =  6.34E-07,  avg # of iterations =  2.0

     total cpu time spent up to now is     1459.1 secs

     total energy              =    -169.90674084 Ry
     estimated scf accuracy    <       0.00004434 Ry

     iteration #  3     ecut=    80.00 Ry     beta= 0.70
     Davidson diagonalization with overlap

---- Real-time Memory Report at c_bands before calling an iterative solver
          1891 MiB given to the printing process from OS
             0 MiB allocation reported by mallinfo(arena+hblkhd)
          6946 MiB available memory on the node where the printing process lives
------------------
     ethr =  1.85E-07,  avg # of iterations =  2.0

     total cpu time spent up to now is     1459.5 secs

     total energy              =    -169.90675091 Ry
     estimated scf accuracy    <       0.00000069 Ry

     iteration #  4     ecut=    80.00 Ry     beta= 0.70
     Davidson diagonalization with overlap

---- Real-time Memory Report at c_bands before calling an iterative solver
          1891 MiB given to the printing process from OS
             0 MiB allocation reported by mallinfo(arena+hblkhd)
          6944 MiB available memory on the node where the printing process lives
------------------
     ethr =  2.86E-09,  avg # of iterations =  1.1

     total cpu time spent up to now is     1459.8 secs

     total energy              =    -169.90675096 Ry
     estimated scf accuracy    <       0.00000001 Ry

     iteration #  5     ecut=    80.00 Ry     beta= 0.70
     Davidson diagonalization with overlap

---- Real-time Memory Report at c_bands before calling an iterative solver
          1891 MiB given to the printing process from OS
             0 MiB allocation reported by mallinfo(arena+hblkhd)
          6943 MiB available memory on the node where the printing process lives
------------------
     ethr =  4.75E-11,  avg # of iterations =  2.0

     total cpu time spent up to now is     1460.1 secs

     End of self-consistent calculation

          k = 0.0000 0.0000 0.0000 (  3287 PWs)   bands (ev):

   -40.1082 -23.5208 -22.7261 -18.1215 -18.1215 -18.1215  -2.5521  -2.5521
    -2.5521  -0.5540  -0.5540  -0.5540  12.0608  15.0548  15.0548  17.5131
    17.5131  17.5131  22.0952  22.0952

     occupation numbers 
     1.0000   1.0000   1.0000   1.0000   1.0000   1.0000   1.0000   1.0000
     1.0000   1.0000   1.0000   1.0000   0.0000   0.0000   0.0000   0.0000
     0.0000   0.0000   0.0000   0.0000

          k =-0.1667 0.1667-0.1667 (  3329 PWs)   bands (ev):

   -40.0989 -23.5445 -22.7965 -18.1347 -18.1347 -18.0474  -2.4198  -2.4198
    -2.3204  -0.8600  -0.6849  -0.6849  12.7689  15.1076  15.1077  17.2198
    17.4328  17.4329  20.9671  22.7581

     occupation numbers 
     1.0000   1.0000   1.0000   1.0000   1.0000   1.0000   1.0000   1.0000
     1.0000   1.0000   1.0000   1.0000   0.0000   0.0000   0.0000   0.0000
     0.0000   0.0000   0.0000   0.0000

          k =-0.3333 0.3333-0.3333 (  3305 PWs)   bands (ev):

   -40.0803 -23.5364 -23.0010 -18.1610 -18.1610 -17.8827  -2.1044  -2.1044
    -1.8730  -1.3916  -0.9896  -0.9896  14.2026  15.2235  15.2235  16.7533
    17.2737  17.2737  19.5238  24.3585

     occupation numbers 
     1.0000   1.0000   1.0000   1.0000   1.0000   1.0000   1.0000   1.0000
     1.0000   1.0000   1.0000   1.0000   0.0000   0.0000   0.0000   0.0000
     0.0000   0.0000   0.0000   0.0000

          k = 0.5000-0.5000 0.5000 (  3316 PWs)   bands (ev):

   -40.0709 -23.4738 -23.1649 -18.1741 -18.1741 -17.7932  -1.8800  -1.8800
    -1.6832  -1.6020  -1.2048  -1.2048  15.2857  15.2857  15.6037  15.6406
    17.1941  17.1941  19.3568  25.4751

     occupation numbers 
     1.0000   1.0000   1.0000   1.0000   1.0000   1.0000   1.0000   1.0000
     1.0000   1.0000   1.0000   1.0000   0.0000   0.0000   0.0000   0.0000
     0.0000   0.0000   0.0000   0.0000

          k = 0.0000 0.3333 0.0000 (  3327 PWs)   bands (ev):

   -40.0958 -23.5615 -22.8069 -18.1540 -18.1540 -17.9967  -2.4675  -2.4675
    -2.0412  -1.3133  -0.5424  -0.5424  12.9963  14.9017  15.3146  17.0884
    17.3903  17.3903  21.6987  22.4005

     occupation numbers 
     1.0000   1.0000   1.0000   1.0000   1.0000   1.0000   1.0000   1.0000
     1.0000   1.0000   1.0000   1.0000   0.0000   0.0000   0.0000   0.0000
     0.0000   0.0000   0.0000   0.0000

          k =-0.1667 0.5000-0.1667 (  3328 PWs)   bands (ev):

   -40.0803 -23.5738 -22.9536 -18.1833 -18.1471 -17.8849  -2.2912  -2.2816
    -1.9202  -1.4850  -0.7040  -0.6784  13.9213  15.0932  15.5106  16.5903
    17.2639  17.3688  20.5507  23.1797

     occupation numbers 
     1.0000   1.0000   1.0000   1.0000   1.0000   1.0000   1.0000   1.0000
     1.0000   1.0000   1.0000   1.0000   0.0000   0.0000   0.0000   0.0000
     0.0000   0.0000   0.0000   0.0000

          k = 0.6667-0.3333 0.6667 (  3321 PWs)   bands (ev):

   -40.0679 -23.4787 -23.1887 -18.1933 -18.1016 -17.8301  -2.3052  -2.0713
    -1.9664  -1.0693  -1.0325  -0.8857  14.3029  15.4962  15.7063  16.2891
    17.1706  17.6384  19.6742  24.2391

     occupation numbers 
     1.0000   1.0000   1.0000   1.0000   1.0000   1.0000   1.0000   1.0000
     1.0000   1.0000   1.0000   1.0000   0.0000   0.0000   0.0000   0.0000
     0.0000   0.0000   0.0000   0.0000

          k = 0.5000-0.1667 0.5000 (  3334 PWs)   bands (ev):

   -40.0710 -23.4888 -23.1487 -18.1743 -18.0892 -17.8794  -2.4036  -1.8857
    -1.7367  -1.3578  -1.3399  -0.6375  14.2700  15.2893  15.6287  16.4440
    17.2063  17.6095  19.8466  22.9921

     occupation numbers 
     1.0000   1.0000   1.0000   1.0000   1.0000   1.0000   1.0000   1.0000
     1.0000   1.0000   1.0000   1.0000   0.0000   0.0000   0.0000   0.0000
     0.0000   0.0000   0.0000   0.0000

          k = 0.3333 0.0000 0.3333 (  3325 PWs)   bands (ev):

   -40.0865 -23.5552 -22.9144 -18.1450 -18.1290 -17.9721  -2.4635  -2.1108
    -1.8772  -1.3937  -1.0395  -0.5242  13.6180  15.0975  15.2729  16.8342
    17.3413  17.3982  20.6298  22.3316

     occupation numbers 
     1.0000   1.0000   1.0000   1.0000   1.0000   1.0000   1.0000   1.0000
     1.0000   1.0000   1.0000   1.0000   0.0000   0.0000   0.0000   0.0000
     0.0000   0.0000   0.0000   0.0000

          k = 0.0000 0.6667 0.0000 (  3347 PWs)   bands (ev):

   -40.0711 -23.6380 -22.9636 -18.2185 -18.2185 -17.7431  -2.6121  -2.2442
    -2.2442  -0.9136  -0.5852  -0.5852  13.7648  15.9038  15.9100  16.0637
    17.2021  17.2021  22.0348  22.9056

     occupation numbers 
     1.0000   1.0000   1.0000   1.0000   1.0000   1.0000   1.0000   1.0000
     1.0000   1.0000   1.0000   1.0000   0.0000   0.0000   0.0000   0.0000
     0.0000   0.0000   0.0000   0.0000

          k = 0.8333-0.1667 0.8333 (  3314 PWs)   bands (ev):

   -40.0617 -23.5968 -23.1080 -18.2315 -18.1675 -17.7128  -2.9144  -2.1574
    -2.0636  -0.7656  -0.6910  -0.4903  13.6846  15.6841  15.9715  16.4771
    17.1391  18.2974  20.9754  21.9895

     occupation numbers 
     1.0000   1.0000   1.0000   1.0000   1.0000   1.0000   1.0000   1.0000
     1.0000   1.0000   1.0000   1.0000   0.0000   0.0000   0.0000   0.0000
     0.0000   0.0000   0.0000   0.0000

          k = 0.6667-0.0000 0.6667 (  3318 PWs)   bands (ev):

   -40.0617 -23.4005 -23.3291 -18.2096 -18.0179 -17.8588  -2.7464  -2.1591
    -1.7974  -1.1629  -0.8636  -0.4387  13.8960  15.6441  15.7385  16.2635
    17.1333  19.0443  20.7481  20.8680

     occupation numbers 
     1.0000   1.0000   1.0000   1.0000   1.0000   1.0000   1.0000   1.0000
     1.0000   1.0000   1.0000   1.0000   0.0000   0.0000   0.0000   0.0000
     0.0000   0.0000   0.0000   0.0000

          k = 0.0000-1.0000 0.0000 (  3306 PWs)   bands (ev):

   -40.0586 -23.6740 -23.0398 -18.2505 -18.2505 -17.6136  -3.1876  -2.0937
    -2.0937  -0.6517  -0.6517  -0.2782  13.4422  15.4451  16.2453  17.1321
    17.1321  18.5013  20.5477  22.4206

     occupation numbers 
     1.0000   1.0000   1.0000   1.0000   1.0000   1.0000   1.0000   1.0000
     1.0000   1.0000   1.0000   1.0000   0.0000   0.0000   0.0000   0.0000
     0.0000   0.0000   0.0000   0.0000

          k = 0.6667-0.3333 1.0000 (  3317 PWs)   bands (ev):

   -40.0679 -23.5397 -23.1183 -18.2094 -18.0886 -17.8369  -2.4331  -2.4017
    -1.8770  -1.0616  -0.9284  -0.5377  13.9581  15.5511  15.8968  16.1294
    17.1962  17.8279  20.8153  22.2752

     occupation numbers 
     1.0000   1.0000   1.0000   1.0000   1.0000   1.0000   1.0000   1.0000
     1.0000   1.0000   1.0000   1.0000   0.0000   0.0000   0.0000   0.0000
     0.0000   0.0000   0.0000   0.0000

          k = 0.5000-0.1667 0.8333 (  3314 PWs)   bands (ev):

   -40.0617 -23.4027 -23.3267 -18.2270 -17.9734 -17.8861  -2.5715  -2.4762
    -1.5347  -1.3743  -0.6316  -0.5810  13.9479  15.6295  15.8469  16.0817
    17.1563  18.9244  20.1920  22.6340

     occupation numbers 
     1.0000   1.0000   1.0000   1.0000   1.0000   1.0000   1.0000   1.0000
     1.0000   1.0000   1.0000   1.0000   0.0000   0.0000   0.0000   0.0000
     0.0000   0.0000   0.0000   0.0000

          k =-0.3333-1.0000 0.0000 (  3322 PWs)   bands (ev):

   -40.0586 -23.5306 -23.2154 -18.2527 -18.0726 -17.7562  -2.9368  -2.3640
    -1.7636  -1.0452  -0.5890  -0.3452  13.7057  15.6277  15.9055  16.2686
    17.1518  20.1190  20.2830  21.3811

     occupation numbers 
     1.0000   1.0000   1.0000   1.0000   1.0000   1.0000   1.0000   1.0000
     1.0000   1.0000   1.0000   1.0000   0.0000   0.0000   0.0000   0.0000
     0.0000   0.0000   0.0000   0.0000

     highest occupied, lowest unoccupied level (ev):    -0.2782   12.0608

!    total energy              =    -169.90675096 Ry
     estimated scf accuracy    <          1.6E-10 Ry

     convergence has been achieved in   5 iterations

     Using ACE for calculation of exact exchange
     ACE projected onto    20 (nbndproj) and applied to    20 (nbnd) bands

     total energy              =    -169.90681630 Ry
     Harris-Foulkes estimate   =    -169.90681630 Ry
     est. exchange err (dexx)  =       0.00006534 Ry
     - averaged Fock potential =      25.12928168 Ry
     + Fock energy (ACE)       =     -12.57015458 Ry

     EXX: now go back to refine exchange calculation

     total cpu time spent up to now is     2174.8 secs

     Self-consistent Calculation

     iteration #  1     ecut=    80.00 Ry     beta= 0.70
     Davidson diagonalization with overlap

---- Real-time Memory Report at c_bands before calling an iterative solver
          1891 MiB given to the printing process from OS
             0 MiB allocation reported by mallinfo(arena+hblkhd)
          6962 MiB available memory on the node where the printing process lives
------------------
     ethr =  4.75E-11,  avg # of iterations =  5.0

     total cpu time spent up to now is     2175.3 secs

     total energy              =    -169.90682593 Ry
     estimated scf accuracy    <       0.00000497 Ry

     iteration #  2     ecut=    80.00 Ry     beta= 0.70
     Davidson diagonalization with overlap

---- Real-time Memory Report at c_bands before calling an iterative solver
          1891 MiB given to the printing process from OS
             0 MiB allocation reported by mallinfo(arena+hblkhd)
          6949 MiB available memory on the node where the printing process lives
------------------
     ethr =  2.07E-08,  avg # of iterations =  2.0

     total cpu time spent up to now is     2175.7 secs

     total energy              =    -169.90682723 Ry
     estimated scf accuracy    <       0.00000145 Ry

     iteration #  3     ecut=    80.00 Ry     beta= 0.70
     Davidson diagonalization with overlap

---- Real-time Memory Report at c_bands before calling an iterative solver
          1891 MiB given to the printing process from OS
             0 MiB allocation reported by mallinfo(arena+hblkhd)
          6949 MiB available memory on the node where the printing process lives
------------------
     ethr =  6.03E-09,  avg # of iterations =  2.0

     total cpu time spent up to now is     2176.0 secs

     total energy              =    -169.90682756 Ry
     estimated scf accuracy    <       0.00000002 Ry

     iteration #  4     ecut=    80.00 Ry     beta= 0.70
     Davidson diagonalization with overlap

---- Real-time Memory Report at c_bands before calling an iterative solver
          1891 MiB given to the printing process from OS
             0 MiB allocation reported by mallinfo(arena+hblkhd)
[...]

   -40.0840 -23.5323 -22.9976 -18.1627 -18.1627 -17.8849  -2.1021  -2.1021
    -1.8720  -1.3900  -0.9909  -0.9909  14.2153  15.2279  15.2279  16.7596
    17.2785  17.2785  19.5326  24.3647

     occupation numbers 
     1.0000   1.0000   1.0000   1.0000   1.0000   1.0000   1.0000   1.0000
     1.0000   1.0000   1.0000   1.0000   0.0000   0.0000   0.0000   0.0000
     0.0000   0.0000   0.0000   0.0000

          k = 0.5000-0.5000 0.5000 (  3316 PWs)   bands (ev):

   -40.0747 -23.4696 -23.1614 -18.1757 -18.1757 -17.7954  -1.8775  -1.8775
    -1.6815  -1.6011  -1.2062  -1.2062  15.2899  15.2899  15.6146  15.6499
    17.1991  17.1991  19.3638  25.4815

     occupation numbers 
     1.0000   1.0000   1.0000   1.0000   1.0000   1.0000   1.0000   1.0000
     1.0000   1.0000   1.0000   1.0000   0.0000   0.0000   0.0000   0.0000
     0.0000   0.0000   0.0000   0.0000

          k = 0.0000 0.3333 0.0000 (  3327 PWs)   bands (ev):

   -40.0995 -23.5575 -22.8037 -18.1557 -18.1557 -17.9989  -2.4649  -2.4649
    -2.0388  -1.3127  -0.5448  -0.5448  13.0108  14.9073  15.3195  17.0932
    17.3948  17.3948  21.7065  22.4078

     occupation numbers 
     1.0000   1.0000   1.0000   1.0000   1.0000   1.0000   1.0000   1.0000
     1.0000   1.0000   1.0000   1.0000   0.0000   0.0000   0.0000   0.0000
     0.0000   0.0000   0.0000   0.0000

          k =-0.1667 0.5000-0.1667 (  3328 PWs)   bands (ev):

   -40.0841 -23.5697 -22.9503 -18.1848 -18.1488 -17.8873  -2.2891  -2.2798
    -1.9179  -1.4841  -0.7054  -0.6800  13.9317  15.1006  15.5147  16.5965
    17.2690  17.3737  20.5586  23.1865

     occupation numbers 
     1.0000   1.0000   1.0000   1.0000   1.0000   1.0000   1.0000   1.0000
     1.0000   1.0000   1.0000   1.0000   0.0000   0.0000   0.0000   0.0000
     0.0000   0.0000   0.0000   0.0000

          k = 0.6667-0.3333 0.6667 (  3321 PWs)   bands (ev):

   -40.0717 -23.4746 -23.1851 -18.1948 -18.1033 -17.8323  -2.3021  -2.0698
    -1.9651  -1.0697  -1.0333  -0.8865  14.3106  15.5000  15.7156  16.2960
    17.1759  17.6442  19.6813  24.2439

     occupation numbers 
     1.0000   1.0000   1.0000   1.0000   1.0000   1.0000   1.0000   1.0000
     1.0000   1.0000   1.0000   1.0000   0.0000   0.0000   0.0000   0.0000
     0.0000   0.0000   0.0000   0.0000

          k = 0.5000-0.1667 0.5000 (  3334 PWs)   bands (ev):

   -40.0748 -23.4847 -23.1450 -18.1759 -18.0909 -17.8815  -2.4012  -1.8835
    -1.7349  -1.3585  -1.3402  -0.6388  14.2797  15.2933  15.6358  16.4509
    17.2114  17.6150  19.8542  22.9986

     occupation numbers 
     1.0000   1.0000   1.0000   1.0000   1.0000   1.0000   1.0000   1.0000
     1.0000   1.0000   1.0000   1.0000   0.0000   0.0000   0.0000   0.0000
     0.0000   0.0000   0.0000   0.0000

          k = 0.3333 0.0000 0.3333 (  3325 PWs)   bands (ev):

   -40.0903 -23.5511 -22.9110 -18.1468 -18.1307 -17.9741  -2.4610  -2.1083
    -1.8759  -1.3925  -1.0407  -0.5263  13.6311  15.1021  15.2782  16.8399
    17.3458  17.4030  20.6380  22.3389

     occupation numbers 
     1.0000   1.0000   1.0000   1.0000   1.0000   1.0000   1.0000   1.0000
     1.0000   1.0000   1.0000   1.0000   0.0000   0.0000   0.0000   0.0000
     0.0000   0.0000   0.0000   0.0000

          k = 0.0000 0.6667 0.0000 (  3347 PWs)   bands (ev):

   -40.0748 -23.6337 -22.9603 -18.2198 -18.2198 -17.7458  -2.6075  -2.2433
    -2.2433  -0.9139  -0.5865  -0.5865  13.7720  15.9072  15.9202  16.0713
    17.2076  17.2076  22.0389  22.9126

     occupation numbers 
     1.0000   1.0000   1.0000   1.0000   1.0000   1.0000   1.0000   1.0000
     1.0000   1.0000   1.0000   1.0000   0.0000   0.0000   0.0000   0.0000
     0.0000   0.0000   0.0000   0.0000

          k = 0.8333-0.1667 0.8333 (  3314 PWs)   bands (ev):

   -40.0656 -23.5925 -23.1044 -18.2328 -18.1689 -17.7156  -2.9095  -2.1568
    -2.0635  -0.7660  -0.6918  -0.4919  13.6918  15.6931  15.9745  16.4854
    17.1448  18.3042  20.9815  21.9955

     occupation numbers 
     1.0000   1.0000   1.0000   1.0000   1.0000   1.0000   1.0000   1.0000
     1.0000   1.0000   1.0000   1.0000   0.0000   0.0000   0.0000   0.0000
     0.0000   0.0000   0.0000   0.0000

          k = 0.6667-0.0000 0.6667 (  3318 PWs)   bands (ev):

   -40.0655 -23.3965 -23.3252 -18.2110 -18.0197 -17.8611  -2.7431  -2.1572
    -1.7976  -1.1622  -0.8649  -0.4402  13.9041  15.6474  15.7469  16.2718
    17.1389  19.0497  20.7548  20.8749

     occupation numbers 
     1.0000   1.0000   1.0000   1.0000   1.0000   1.0000   1.0000   1.0000
     1.0000   1.0000   1.0000   1.0000   0.0000   0.0000   0.0000   0.0000
     0.0000   0.0000   0.0000   0.0000

          k = 0.0000-1.0000 0.0000 (  3306 PWs)   bands (ev):

   -40.0625 -23.6696 -23.0363 -18.2516 -18.2516 -17.6166  -3.1818  -2.0941
    -2.0941  -0.6520  -0.6520  -0.2805  13.4495  15.4548  16.2477  17.1381
    17.1381  18.5111  20.5533  22.4256

     occupation numbers 
     1.0000   1.0000   1.0000   1.0000   1.0000   1.0000   1.0000   1.0000
     1.0000   1.0000   1.0000   1.0000   0.0000   0.0000   0.0000   0.0000
     0.0000   0.0000   0.0000   0.0000

          k = 0.6667-0.3333 1.0000 (  3317 PWs)   bands (ev):

   -40.0717 -23.5356 -23.1147 -18.2108 -18.0903 -17.8392  -2.4294  -2.4002
    -1.8762  -1.0622  -0.9289  -0.5389  13.9661  15.5564  15.9036  16.1372
    17.2017  17.8335  20.8220  22.2820

     occupation numbers 
     1.0000   1.0000   1.0000   1.0000   1.0000   1.0000   1.0000   1.0000
     1.0000   1.0000   1.0000   1.0000   0.0000   0.0000   0.0000   0.0000
     0.0000   0.0000   0.0000   0.0000

          k = 0.5000-0.1667 0.8333 (  3314 PWs)   bands (ev):

   -40.0655 -23.3987 -23.3229 -18.2283 -17.9754 -17.8882  -2.5692  -2.4731
    -1.5342  -1.3749  -0.6320  -0.5828  13.9553  15.6334  15.8556  16.0897
    17.1620  18.9300  20.1988  22.6397

     occupation numbers 
     1.0000   1.0000   1.0000   1.0000   1.0000   1.0000   1.0000   1.0000
     1.0000   1.0000   1.0000   1.0000   0.0000   0.0000   0.0000   0.0000
     0.0000   0.0000   0.0000   0.0000

          k =-0.3333-1.0000 0.0000 (  3322 PWs)   bands (ev):

   -40.0625 -23.5264 -23.2117 -18.2538 -18.0743 -17.7588  -2.9325  -2.3626
    -1.7639  -1.0454  -0.5893  -0.3476  13.7126  15.6370  15.9085  16.2771
    17.1577  20.1261  20.2879  21.3877

     occupation numbers 
     1.0000   1.0000   1.0000   1.0000   1.0000   1.0000   1.0000   1.0000
     1.0000   1.0000   1.0000   1.0000   0.0000   0.0000   0.0000   0.0000
     0.0000   0.0000   0.0000   0.0000

     highest occupied, lowest unoccupied level (ev):    -0.2805   12.0785

!    total energy              =    -169.90682989 Ry
     estimated scf accuracy    <          6.6E-10 Ry

     convergence has been achieved in   3 iterations

     Using ACE for calculation of exact exchange
     ACE projected onto    20 (nbndproj) and applied to    20 (nbnd) bands

     total energy              =    -169.90682996 Ry
     Harris-Foulkes estimate   =    -169.90682996 Ry
     est. exchange err (dexx)  =       0.00000006 Ry
     - averaged Fock potential =      25.14482259 Ry
     + Fock energy (ACE)       =     -12.57260356 Ry

     EXX: now go back to refine exchange calculation

     total cpu time spent up to now is     3592.9 secs

     Self-consistent Calculation

     iteration #  1     ecut=    80.00 Ry     beta= 0.70
     Davidson diagonalization with overlap

---- Real-time Memory Report at c_bands before calling an iterative solver
          1891 MiB given to the printing process from OS
             0 MiB allocation reported by mallinfo(arena+hblkhd)
          6897 MiB available memory on the node where the printing process lives
------------------
     ethr =  1.92E-10,  avg # of iterations =  2.0

     Threshold (ethr) on eigenvalues was too large:
     Diagonalizing with lowered threshold

     Davidson diagonalization with overlap

---- Real-time Memory Report at c_bands before calling an iterative solver
          1891 MiB given to the printing process from OS
             0 MiB allocation reported by mallinfo(arena+hblkhd)
          6894 MiB available memory on the node where the printing process lives
------------------
     ethr =  1.87E-11,  avg # of iterations =  1.0

     total cpu time spent up to now is     3593.6 secs

     End of self-consistent calculation

          k = 0.0000 0.0000 0.0000 (  3287 PWs)   bands (ev):

   -40.1120 -23.5170 -22.7231 -18.1235 -18.1235 -18.1235  -2.5488  -2.5488
    -2.5488  -0.5569  -0.5569  -0.5569  12.0790  15.0604  15.0604  17.5170
    17.5170  17.5170  22.1030  22.1030

     occupation numbers 
     1.0000   1.0000   1.0000   1.0000   1.0000   1.0000   1.0000   1.0000
     1.0000   1.0000   1.0000   1.0000   0.0000   0.0000   0.0000   0.0000
     0.0000   0.0000   0.0000   0.0000

          k =-0.1667 0.1667-0.1667 (  3329 PWs)   bands (ev):

   -40.1028 -23.5406 -22.7933 -18.1367 -18.1367 -18.0496  -2.4169  -2.4169
    -2.3180  -0.8609  -0.6873  -0.6873  12.7848  15.1129  15.1129  17.2247
    17.4371  17.4371  20.9758  22.7654

     occupation numbers 
     1.0000   1.0000   1.0000   1.0000   1.0000   1.0000   1.0000   1.0000
     1.0000   1.0000   1.0000   1.0000   0.0000   0.0000   0.0000   0.0000
     0.0000   0.0000   0.0000   0.0000

          k =-0.3333 0.3333-0.3333 (  3305 PWs)   bands (ev):

   -40.0842 -23.5323 -22.9976 -18.1628 -18.1628 -17.8850  -2.1022  -2.1022
    -1.8721  -1.3901  -0.9912  -0.9912  14.2156  15.2280  15.2280  16.7597
    17.2786  17.2786  19.5329  24.3648

     occupation numbers 
     1.0000   1.0000   1.0000   1.0000   1.0000   1.0000   1.0000   1.0000
     1.0000   1.0000   1.0000   1.0000   0.0000   0.0000   0.0000   0.0000
     0.0000   0.0000   0.0000   0.0000

          k = 0.5000-0.5000 0.5000 (  3316 PWs)   bands (ev):

   -40.0749 -23.4696 -23.1614 -18.1758 -18.1758 -17.7956  -1.8776  -1.8776
    -1.6816  -1.6013  -1.2064  -1.2064  15.2900  15.2900  15.6149  15.6502
    17.1992  17.1992  19.3640  25.4817

     occupation numbers 
     1.0000   1.0000   1.0000   1.0000   1.0000   1.0000   1.0000   1.0000
     1.0000   1.0000   1.0000   1.0000   0.0000   0.0000   0.0000   0.0000
     0.0000   0.0000   0.0000   0.0000

          k = 0.0000 0.3333 0.0000 (  3327 PWs)   bands (ev):

   -40.0997 -23.5575 -22.8038 -18.1558 -18.1558 -17.9990  -2.4650  -2.4650
    -2.0389  -1.3128  -0.5450  -0.5450  13.0112  14.9074  15.3196  17.0933
    17.3949  17.3949  21.7067  22.4080

     occupation numbers 
     1.0000   1.0000   1.0000   1.0000   1.0000   1.0000   1.0000   1.0000
     1.0000   1.0000   1.0000   1.0000   0.0000   0.0000   0.0000   0.0000
     0.0000   0.0000   0.0000   0.0000

          k =-0.1667 0.5000-0.1667 (  3328 PWs)   bands (ev):

   -40.0843 -23.5697 -22.9503 -18.1849 -18.1489 -17.8874  -2.2892  -2.2799
    -1.9180  -1.4842  -0.7056  -0.6802  13.9320  15.1008  15.5148  16.5967
    17.2690  17.3738  20.5588  23.1867

     occupation numbers 
     1.0000   1.0000   1.0000   1.0000   1.0000   1.0000   1.0000   1.0000
     1.0000   1.0000   1.0000   1.0000   0.0000   0.0000   0.0000   0.0000
     0.0000   0.0000   0.0000   0.0000

          k = 0.6667-0.3333 0.6667 (  3321 PWs)   bands (ev):

   -40.0719 -23.4746 -23.1851 -18.1949 -18.1035 -17.8324  -2.3022  -2.0699
    -1.9652  -1.0699  -1.0335  -0.8867  14.3108  15.5001  15.7158  16.2962
    17.1760  17.6444  19.6815  24.2440

     occupation numbers 
     1.0000   1.0000   1.0000   1.0000   1.0000   1.0000   1.0000   1.0000
     1.0000   1.0000   1.0000   1.0000   0.0000   0.0000   0.0000   0.0000
     0.0000   0.0000   0.0000   0.0000

          k = 0.5000-0.1667 0.5000 (  3334 PWs)   bands (ev):

   -40.0750 -23.4847 -23.1450 -18.1760 -18.0911 -17.8817  -2.4013  -1.8836
    -1.7350  -1.3587  -1.3404  -0.6390  14.2800  15.2934  15.6360  16.4510
    17.2115  17.6151  19.8544  22.9987

     occupation numbers 
     1.0000   1.0000   1.0000   1.0000   1.0000   1.0000   1.0000   1.0000
     1.0000   1.0000   1.0000   1.0000   0.0000   0.0000   0.0000   0.0000
     0.0000   0.0000   0.0000   0.0000

          k = 0.3333 0.0000 0.3333 (  3325 PWs)   bands (ev):

   -40.0904 -23.5511 -22.9110 -18.1469 -18.1308 -17.9743  -2.4611  -2.1084
    -1.8761  -1.3926  -1.0409  -0.5265  13.6314  15.1022  15.2783  16.8400
    17.3459  17.4031  20.6382  22.3391

     occupation numbers 
     1.0000   1.0000   1.0000   1.0000   1.0000   1.0000   1.0000   1.0000
     1.0000   1.0000   1.0000   1.0000   0.0000   0.0000   0.0000   0.0000
     0.0000   0.0000   0.0000   0.0000

          k = 0.0000 0.6667 0.0000 (  3347 PWs)   bands (ev):

   -40.0750 -23.6337 -22.9603 -18.2199 -18.2199 -17.7459  -2.6075  -2.2435
    -2.2435  -0.9141  -0.5867  -0.5867  13.7722  15.9072  15.9205  16.0715
    17.2077  17.2077  22.0390  22.9128

     occupation numbers 
     1.0000   1.0000   1.0000   1.0000   1.0000   1.0000   1.0000   1.0000
     1.0000   1.0000   1.0000   1.0000   0.0000   0.0000   0.0000   0.0000
     0.0000   0.0000   0.0000   0.0000

          k = 0.8333-0.1667 0.8333 (  3314 PWs)   bands (ev):

   -40.0658 -23.5925 -23.1044 -18.2329 -18.1690 -17.7157  -2.9096  -2.1569
    -2.0636  -0.7662  -0.6920  -0.4922  13.6919  15.6934  15.9745  16.4856
    17.1449  18.3043  20.9816  21.9956

     occupation numbers 
     1.0000   1.0000   1.0000   1.0000   1.0000   1.0000   1.0000   1.0000
     1.0000   1.0000   1.0000   1.0000   0.0000   0.0000   0.0000   0.0000
     0.0000   0.0000   0.0000   0.0000

          k = 0.6667-0.0000 0.6667 (  3318 PWs)   bands (ev):

   -40.0657 -23.3964 -23.3252 -18.2111 -18.0198 -17.8612  -2.7431  -2.1573
    -1.7978  -1.1624  -0.8651  -0.4404  13.9043  15.6475  15.7471  16.2720
    17.1390  19.0498  20.7550  20.8751

     occupation numbers 
     1.0000   1.0000   1.0000   1.0000   1.0000   1.0000   1.0000   1.0000
     1.0000   1.0000   1.0000   1.0000   0.0000   0.0000   0.0000   0.0000
     0.0000   0.0000   0.0000   0.0000

          k = 0.0000-1.0000 0.0000 (  3306 PWs)   bands (ev):

   -40.0627 -23.6696 -23.0363 -18.2517 -18.2517 -17.6168  -3.1818  -2.0943
    -2.0943  -0.6522  -0.6522  -0.2807  13.4497  15.4551  16.2477  17.1382
    17.1382  18.5114  20.5535  22.4258

     occupation numbers 
     1.0000   1.0000   1.0000   1.0000   1.0000   1.0000   1.0000   1.0000
     1.0000   1.0000   1.0000   1.0000   0.0000   0.0000   0.0000   0.0000
     0.0000   0.0000   0.0000   0.0000

          k = 0.6667-0.3333 1.0000 (  3317 PWs)   bands (ev):

   -40.0719 -23.5356 -23.1147 -18.2109 -18.0904 -17.8394  -2.4295  -2.4003
    -1.8763  -1.0624  -0.9291  -0.5391  13.9663  15.5566  15.9038  16.1373
    17.2018  17.8336  20.8222  22.2822

     occupation numbers 
     1.0000   1.0000   1.0000   1.0000   1.0000   1.0000   1.0000   1.0000
     1.0000   1.0000   1.0000   1.0000   0.0000   0.0000   0.0000   0.0000
     0.0000   0.0000   0.0000   0.0000

          k = 0.5000-0.1667 0.8333 (  3314 PWs)   bands (ev):

   -40.0657 -23.3987 -23.3229 -18.2284 -17.9755 -17.8883  -2.5693  -2.4732
    -1.5343  -1.3751  -0.6322  -0.5830  13.9555  15.6335  15.8558  16.0899
    17.1621  18.9301  20.1989  22.6399

     occupation numbers 
     1.0000   1.0000   1.0000   1.0000   1.0000   1.0000   1.0000   1.0000
     1.0000   1.0000   1.0000   1.0000   0.0000   0.0000   0.0000   0.0000
     0.0000   0.0000   0.0000   0.0000

          k =-0.3333-1.0000 0.0000 (  3322 PWs)   bands (ev):

   -40.0627 -23.5264 -23.2117 -18.2539 -18.0744 -17.7589  -2.9326  -2.3628
    -1.7641  -1.0456  -0.5895  -0.3478  13.7128  15.6373  15.9086  16.2773
    17.1578  20.1263  20.2880  21.3878

     occupation numbers 
     1.0000   1.0000   1.0000   1.0000   1.0000   1.0000   1.0000   1.0000
     1.0000   1.0000   1.0000   1.0000   0.0000   0.0000   0.0000   0.0000
     0.0000   0.0000   0.0000   0.0000

     highest occupied, lowest unoccupied level (ev):    -0.2807   12.0790

!    total energy              =    -169.90682997 Ry
     estimated scf accuracy    <          4.4E-09 Ry

     convergence has been achieved in   1 iterations

     Using ACE for calculation of exact exchange
     ACE projected onto    20 (nbndproj) and applied to    20 (nbnd) bands

!!   total energy              =    -169.90682997 Ry
     Harris-Foulkes estimate   =    -169.90682997 Ry
     est. exchange err (dexx)  =          2.8E-09 Ry
     - averaged Fock potential =      25.14531441 Ry
     + Fock energy (ACE)       =     -12.57271085 Ry

     EXX self-consistency reached

     Writing all to output data dir ./out_qc/caf2qc.save/ :
     XML data file, charge density, pseudopotentials, collected wavefunctions

     init_run     :      0.22s CPU      0.23s WALL (       1 calls)
     electrons    :     10.29s CPU     10.80s WALL (       6 calls)

     Called by init_run:
     aceinit0     :      0.00s CPU      0.00s WALL (       1 calls)
     wfcinit      :      0.11s CPU      0.11s WALL (       1 calls)
     wfcinit:wfcr :      0.10s CPU      0.10s WALL (      16 calls)
     potinit      :      0.01s CPU      0.01s WALL (       1 calls)
     hinit0       :      0.08s CPU      0.09s WALL (       1 calls)

     Called by electrons:
     c_bands      :      8.64s CPU      9.04s WALL (      28 calls)
     sum_band     :      1.33s CPU      1.43s WALL (      28 calls)
     v_of_rho     :      0.31s CPU      0.32s WALL (      28 calls)
     v_h          :      0.01s CPU      0.01s WALL (      28 calls)
     v_xc         :      0.30s CPU      0.31s WALL (      28 calls)
     mix_rho      :      0.01s CPU      0.01s WALL (      28 calls)

     Called by c_bands:
     init_us_2    :      0.13s CPU      0.14s WALL (     912 calls)
     cegterg      :      8.39s CPU      8.78s WALL (     448 calls)

     Called by sum_band:
     sum_band:wei :      0.00s CPU      0.00s WALL (      28 calls)
     sum_band:loo :      1.31s CPU      1.40s WALL (      28 calls)
     sum_band:buf :      0.01s CPU      0.01s WALL (     448 calls)
     sum_band:ini :      0.06s CPU      0.07s WALL (     448 calls)

     Called by *egterg:
     cdiaghg      :      0.37s CPU      0.39s WALL (    1529 calls)
     cegterg:over :      0.23s CPU      0.24s WALL (    1193 calls)
     cegterg:upda :      0.10s CPU      0.11s WALL (    1193 calls)
     cegterg:last :      0.17s CPU      0.18s WALL (    1071 calls)
     h_psi        :      7.41s CPU      7.76s WALL (    1657 calls)
     g_psi        :      0.05s CPU      0.05s WALL (    1193 calls)

     Called by h_psi:
     h_psi:calbec :      0.18s CPU      0.19s WALL (    1657 calls)
     vloc_psi     :      6.94s CPU      7.27s WALL (    1657 calls)
                                        0.00s GPU  (    1657 calls)
     add_vuspsi   :      0.11s CPU      0.12s WALL (    1657 calls)

     General routines
     calbec       :      0.31s CPU      0.34s WALL (    3232 calls)
     fft          :      0.12s CPU      0.13s WALL (     274 calls)
     ffts         :      0.00s CPU      0.01s WALL (      28 calls)
     fftw         :      7.51s CPU      7.89s WALL (   60150 calls)
     fftc         :   2969.33s CPU   3207.24s WALL (16588800 calls)
     fftcw        :      0.66s CPU      0.89s WALL (    5760 calls)

     Parallel routines

     EXX routines
     exx_grid     :      0.00s CPU      0.00s WALL (       1 calls)
     exxinit      :      7.72s CPU     10.47s WALL (       6 calls)
     vexx         :   3966.10s CPU   4279.08s WALL (      96 calls)
     matcalc      :      0.13s CPU      0.15s WALL (    1575 calls)
     aceupdate    :      0.00s CPU      0.01s WALL (      96 calls)
     vexxace      :      0.18s CPU      0.20s WALL (    1303 calls)
     aceinit      :   3966.12s CPU   4279.11s WALL (      96 calls)

     PWSCF        :      1h 6m CPU      1h11m WALL


   This run was terminated on:   7: 6:11  26Jun2026            

=------------------------------------------------------------------------------=
   JOB DONE.
=------------------------------------------------------------------------------=
