
     Program PWSCF v.7.5 starts on 25Jun2026 at 10:36:41 

     This program is part of the open-source Quantum ESPRESSO suite
     for quantum simulation of materials; please cite
         "P. Giannozzi et al., J. Phys.:Condens. Matter 21 395502 (2009);
         "P. Giannozzi et al., J. Phys.:Condens. Matter 29 465901 (2017);
         "P. Giannozzi et al., J. Chem. Phys. 152 154105 (2020);
          URL http://www.quantum-espresso.org", 
     in publications or presentations arising from this work. More details at
     http://www.quantum-espresso.org/quote

     Parallel version (MPI & OpenMP), running on       4 processor cores
     Number of MPI processes:                 4
     Threads/MPI process:                     1

     MPI processes distributed on     1 nodes
     13604 MiB available memory on the printing compute node when the environment starts

     Reading input from alas.fg.in

     Current dimensions of program PWSCF are:
     Max number of different atomic species (ntypx) = 10
     Max number of k-points (npk) =  40000
     Max angular momentum in pseudopotentials (lmaxx) =  4

     IMPORTANT: XC functional enforced from input :
     Exchange-correlation= HSE
                           (   1   4  12   4   0   0   0)
     EXX-fraction              =        0.25
     Any further DFT definition will be discarded
     Please, verify this is what you really want

     EXX Screening parameter changed:    0.6054000
     EXX fraction changed:   1.00
     DD-RSH-CAM (LMODELHF) semilocal: AEXX, BEXX =   0.1246  0.6780
     DD-RSH-CAM (LMODELHF) enabled
     AEXX =  0.1246   BEXX =  0.6780   mu(bohr^-1) =  0.6054

     R & G space division:  proc/nbgrp/npool/nimage =       4
     Subspace diagonalization in iterative solution of the eigenvalue problem:
     a serial algorithm will be used

     EXX: q-point mesh:     6    6    6
     EXX: setup a grid of 216 q-points centered on each k-point
     (k+q)-points:
   0.0000000   0.0000000   0.0000000         1    1
  -0.1666667   0.1666667  -0.1666667         2    1
  -0.3333333   0.3333333  -0.3333333         3    1
   0.5000000  -0.5000000   0.5000000         4    1
   0.3333333  -0.3333333   0.3333333         3   -1
   0.1666667  -0.1666667   0.1666667         2   -1
   0.1666667   0.1666667   0.1666667         2    3
   0.0000000   0.3333333   0.0000000         5    1
  -0.1666667   0.5000000  -0.1666667         6    1
   0.6666667  -0.3333333   0.6666667         7    1
   0.5000000  -0.1666667   0.5000000         8    1
   0.3333333   0.0000000   0.3333333         9    1
   0.3333333   0.3333333   0.3333333         3    3
   0.1666667   0.5000000   0.1666667         6    3
   0.0000000   0.6666667   0.0000000        10    1
   0.8333333  -0.1666667   0.8333333        11    1
   0.6666667   0.0000000   0.6666667        12    1
   0.5000000   0.1666667   0.5000000         8   -3
  -0.5000000  -0.5000000  -0.5000000         4    3
  -0.6666667  -0.3333333  -0.6666667         7    3
  -0.8333333  -0.1666667  -0.8333333        11    3
   0.0000000  -1.0000000   0.0000000        13    1
   0.8333333   0.1666667   0.8333333        11   -3
   0.6666667   0.3333333   0.6666667         7   -3
  -0.3333333  -0.3333333  -0.3333333         3   -3
  -0.5000000  -0.1666667  -0.5000000         8    3
  -0.6666667   0.0000000  -0.6666667        12   -1
  -0.8333333   0.1666667  -0.8333333        11   -1
   0.0000000  -0.6666667   0.0000000        10   -1
  -0.1666667  -0.5000000  -0.1666667         6   -3
  -0.1666667  -0.1666667  -0.1666667         2   -3
  -0.3333333   0.0000000  -0.3333333         9   -1
  -0.5000000   0.1666667  -0.5000000         8   -1
  -0.6666667   0.3333333  -0.6666667         7   -1
   0.1666667  -0.5000000   0.1666667         6   -1
   0.0000000  -0.3333333   0.0000000         5   -1
  -0.1666667  -0.1666667   0.1666667         2    4
  -0.3333333   0.0000000   0.0000000         5   -9
  -0.5000000   0.1666667  -0.1666667         6   10
   0.3333333  -0.6666667   0.6666667         7   10
   0.1666667  -0.5000000   0.5000000         8   10
   0.0000000  -0.3333333   0.3333333         9   10
   0.0000000   0.0000000   0.3333333         5    5
  -0.1666667   0.1666667   0.1666667         2   -2
  -0.3333333   0.3333333   0.0000000         9    7
  -0.5000000   0.5000000  -0.1666667         8   -8
  -0.6666667   0.6666667  -0.3333333         7   -8
   0.1666667  -0.1666667   0.5000000         6   -8
   0.1666667   0.1666667   0.5000000         6    6
   0.0000000   0.3333333   0.3333333         9    9
  -0.1666667   0.5000000   0.1666667         6   -2
   0.6666667  -0.3333333   1.0000000        14    1
   0.5000000  -0.1666667   0.8333333        15    1
  -0.6666667   1.0000000  -0.3333333        14  -21
  -0.6666667  -0.6666667  -0.3333333         7    6
   0.1666667   0.5000000   0.5000000         8  -12
  -1.0000000  -0.3333333  -0.6666667        14   17
   0.8333333  -0.1666667  -0.8333333        11   -2
  -0.3333333  -1.0000000   0.0000000        16    1
   0.5000000   0.1666667   0.8333333        15   -3
  -0.5000000  -0.5000000  -0.1666667         8    6
   0.3333333   0.6666667   0.6666667         7  -12
   0.1666667   0.8333333   0.5000000        15  -12
   0.0000000  -1.0000000   0.3333333        16   17
   0.8333333   0.1666667  -0.8333333        11    4
   0.6666667   0.3333333   1.0000000        14   -3
  -0.3333333  -0.3333333   0.0000000         9   -5
  -0.5000000  -0.1666667  -0.1666667         6  -12
   0.3333333  -1.0000000   0.6666667        14   10
   0.1666667  -0.8333333   0.5000000        15   10
  -1.0000000   0.3333333  -0.6666667        14  -18
  -0.1666667  -0.5000000   0.1666667         6    4
  -0.3333333  -0.3333333   0.3333333         3    4
  -0.5000000  -0.1666667   0.1666667         6   11
  -0.6666667   0.0000000   0.0000000        10   -9
   0.1666667  -0.8333333   0.8333333        11   10
   0.0000000  -0.6666667   0.6666667        12   10
  -0.1666667  -0.5000000   0.5000000         8  -11
  -0.1666667  -0.1666667   0.5000000         6    5
  -0.3333333   0.0000000   0.3333333         9    2
  -0.5000000   0.1666667   0.1666667         6   -9
   0.3333333  -0.6666667   1.0000000        14   13
  -0.8333333   0.5000000  -0.1666667        15   -8
   1.0000000   0.6666667  -0.3333333        14    5
   0.0000000   0.0000000   0.6666667        10    5
  -0.1666667   0.1666667   0.5000000         6   -7
  -0.3333333   0.3333333   0.3333333         3   -2
  -0.5000000   0.5000000   0.1666667         8    7
  -0.6666667   0.6666667   0.0000000        12    7
  -0.8333333   0.8333333  -0.1666667        11   -8
  -0.8333333  -0.8333333  -0.1666667        11    6
  -1.0000000  -0.6666667  -0.3333333        14    6
  -0.1666667   0.5000000   0.5000000         8    9
   0.6666667  -0.3333333  -0.6666667         7   -2
   0.5000000  -0.1666667  -0.8333333        15   -2
   0.3333333   0.0000000  -1.0000000        16  -21
  -0.6666667  -0.6666667   0.0000000        12   -5
  -0.8333333  -0.5000000  -0.1666667        15    6
   0.0000000   0.6666667   0.6666667        12    9
  -0.1666667   0.8333333   0.5000000        15    9
   0.6666667   0.0000000  -0.6666667        12   -2
   0.5000000   0.1666667  -0.8333333        15    4
  -0.5000000  -0.5000000   0.1666667         8   -5
   0.3333333   0.6666667   1.0000000        14  -15
   0.1666667   0.8333333   0.8333333        11  -12
  -1.0000000   0.0000000  -0.3333333        16    9
  -0.1666667  -0.8333333   0.5000000        15  -11
   0.6666667   0.3333333  -0.6666667         7    4
   0.5000000   0.5000000  -0.5000000         4    4
   0.3333333   0.6666667  -0.6666667         7   11
   0.1666667   0.8333333  -0.8333333        11   11
  -1.0000000   0.0000000   0.0000000        13    9
  -0.1666667  -0.8333333   0.8333333        11  -11
  -0.3333333  -0.6666667   0.6666667         7  -11
   0.6666667   0.6666667  -0.3333333         7    5
  -0.5000000  -0.1666667   0.5000000         8   -4
   0.3333333  -1.0000000  -0.6666667        14   -9
   0.1666667  -0.8333333  -0.8333333        11   -9
   1.0000000   0.3333333   0.0000000        16   13
   0.8333333   0.5000000  -0.1666667        15    5
   0.8333333   0.8333333  -0.1666667        11    5
   0.6666667   1.0000000  -0.3333333        14   22
  -0.5000000   0.1666667   0.5000000         8    2
   0.3333333  -0.6666667  -0.6666667         7   -9
  -0.8333333   0.5000000   0.1666667        15    7
   0.0000000  -0.3333333  -1.0000000        16    5
   0.0000000   0.0000000  -1.0000000        13    5
   0.8333333  -0.8333333  -0.1666667        11   -7
   0.6666667  -0.6666667  -0.3333333         7   -7
  -0.5000000   0.5000000   0.5000000         4    2
  -0.6666667   0.6666667   0.3333333         7    7
  -0.8333333   0.8333333   0.1666667        11    7
  -0.8333333  -0.8333333   0.1666667        11   -5
   0.0000000   0.3333333   1.0000000        16   -5
   0.8333333  -0.5000000  -0.1666667        15   -7
  -0.3333333   0.6666667   0.6666667         7    9
   0.5000000  -0.1666667  -0.5000000         8   -2
  -0.6666667  -1.0000000   0.3333333        14  -22
  -0.6666667  -0.6666667   0.3333333         7   -5
  -0.8333333  -0.5000000   0.1666667        15   -5
  -1.0000000  -0.3333333   0.0000000        16  -13
  -0.1666667   0.8333333   0.8333333        11    9
  -0.3333333   1.0000000   0.6666667        14    9
   0.5000000   0.1666667  -0.5000000         8    4
   0.3333333   0.3333333  -0.3333333         3   -4
   0.1666667   0.5000000  -0.5000000         8   11
   0.0000000   0.6666667  -0.6666667        12  -10
  -0.1666667   0.8333333  -0.8333333        11  -10
   0.6666667   0.0000000   0.0000000        10    9
   0.5000000   0.1666667  -0.1666667         6  -11
   0.5000000   0.5000000  -0.1666667         8    5
  -0.6666667  -0.3333333   0.6666667         7   -4
   0.1666667   0.8333333  -0.5000000        15   11
   1.0000000   0.0000000   0.3333333        16   -9
  -0.1666667  -0.8333333  -0.8333333        11   12
  -0.3333333  -0.6666667  -1.0000000        14   15
   0.6666667   0.6666667   0.0000000        12    5
  -0.5000000  -0.1666667   0.8333333        15   -4
  -0.6666667   0.0000000   0.6666667        12    2
   0.1666667  -0.8333333  -0.5000000        15   -9
   0.0000000  -0.6666667  -0.6666667        12   -9
   0.8333333   0.5000000   0.1666667        15   -6
   0.8333333   0.8333333   0.1666667        11   -6
  -0.3333333   0.0000000   1.0000000        16   21
  -0.5000000   0.1666667   0.8333333        15    2
  -0.6666667   0.3333333   0.6666667         7    2
   0.1666667  -0.5000000  -0.5000000         8   -9
   1.0000000   0.6666667   0.3333333        14   -6
   0.0000000   0.0000000  -0.6666667        10   -5
   0.8333333  -0.8333333   0.1666667        11    8
   0.6666667  -0.6666667   0.0000000        12   -7
   0.5000000  -0.5000000  -0.1666667         8   -7
   0.3333333  -0.3333333  -0.3333333         3    2
   0.1666667  -0.1666667  -0.5000000         6    7
   0.1666667   0.1666667  -0.5000000         6   -5
  -1.0000000  -0.6666667   0.3333333        14   -5
   0.8333333  -0.5000000   0.1666667        15    8
  -0.3333333   0.6666667  -1.0000000        14  -13
   0.5000000  -0.1666667  -0.1666667         6    9
   0.3333333   0.0000000  -0.3333333         9   -2
   0.1666667   0.1666667  -0.1666667         2   -4
   0.0000000   0.3333333  -0.3333333         9  -10
  -0.1666667   0.5000000  -0.5000000         8  -10
  -0.3333333   0.6666667  -0.6666667         7  -10
   0.5000000  -0.1666667   0.1666667         6  -10
   0.3333333   0.0000000   0.0000000         5    9
   0.3333333   0.3333333   0.0000000         9    5
   0.1666667   0.5000000  -0.1666667         6   -4
   1.0000000  -0.3333333   0.6666667        14   18
  -0.1666667   0.8333333  -0.5000000        15  -10
  -0.3333333   1.0000000  -0.6666667        14  -10
   0.5000000   0.1666667   0.1666667         6   12
   0.5000000   0.5000000   0.1666667         8   -6
  -0.6666667  -0.3333333  -1.0000000        14    3
  -0.8333333  -0.1666667   0.8333333        11   -4
   0.0000000   1.0000000  -0.3333333        16  -17
  -0.1666667  -0.8333333  -0.5000000        15   12
  -0.3333333  -0.6666667  -0.6666667         7   12
   0.6666667   0.6666667   0.3333333         7   -6
  -0.5000000  -0.1666667  -0.8333333        15    3
   0.3333333   1.0000000   0.0000000        16   -1
  -0.8333333   0.1666667   0.8333333        11    2
   1.0000000   0.3333333   0.6666667        14  -17
  -0.1666667  -0.5000000  -0.5000000         8   12
  -0.1666667  -0.1666667  -0.5000000         6   -6
   0.6666667  -1.0000000   0.3333333        14   21
  -0.5000000   0.1666667  -0.8333333        15   -1
  -0.6666667   0.3333333  -1.0000000        14   -1
   0.1666667  -0.5000000  -0.1666667         6    2
   0.0000000  -0.3333333  -0.3333333         9   -9
   0.0000000   0.0000000  -0.3333333         5   -5
  -0.1666667   0.1666667  -0.5000000         6    8
   0.6666667  -0.6666667   0.3333333         7    8
   0.5000000  -0.5000000   0.1666667         8    8
   0.3333333  -0.3333333   0.0000000         9   -7
   0.1666667  -0.1666667  -0.1666667         2    2

     Parallelization info
     --------------------
     sticks:   dense  smooth     PW     G-vecs:    dense   smooth      PW
     Min         238     238     70                 4798     4798     784
     Max         239     239     71                 4799     4799     787
     Sum         955     955    283                19195    19195    3143

     Using Slab Decomposition



     bravais-lattice index     =            2
     lattice parameter (alat)  =      10.6960  a.u.
     unit-cell volume          =     305.9174 (a.u.)^3
     number of atoms/cell      =            2
     number of atomic types    =            2
     number of electrons       =        16.00
     number of Kohn-Sham states=           16
     kinetic-energy cutoff     =      60.0000  Ry
     charge density cutoff     =     240.0000  Ry
     cutoff for Fock operator  =     240.0000  Ry
     scf convergence threshold =      1.0E-08
     mixing beta               =       0.7000
     number of iterations used =            8  plain     mixing
     Exchange-correlation= HSE
                           (   1   4  12   4   0   0   0)
     EXX-fraction              =        1.00

     celldm(1)=  10.696000  celldm(2)=   0.000000  celldm(3)=   0.000000
     celldm(4)=   0.000000  celldm(5)=   0.000000  celldm(6)=   0.000000

     crystal axes: (cart. coord. in units of alat)
               a(1) = (  -0.500000   0.000000   0.500000 )  
               a(2) = (   0.000000   0.500000   0.500000 )  
               a(3) = (  -0.500000   0.500000   0.000000 )  

     reciprocal axes: (cart. coord. in units 2 pi/alat)
               b(1) = ( -1.000000 -1.000000  1.000000 )  
               b(2) = (  1.000000  1.000000  1.000000 )  
               b(3) = ( -1.000000  1.000000 -1.000000 )  


     PseudoPot. # 1 for Al read from file:
     ../../../../pseudos/Al_ONCV_PBE-1.2.upf
     MD5 check sum: 2d9e7bc02555220d62fad08c3c4858e7
     Pseudo is Norm-conserving, Zval = 11.0
     Generated using ONCVPSP code by D. R. Hamann
     Using radial grid of  602 points,  4 beta functions with: 
                l(1) =   0
                l(2) =   0
                l(3) =   1
                l(4) =   1

     PseudoPot. # 2 for As read from file:
     ../../../../pseudos/As_ONCV_PBE-1.2.upf
     MD5 check sum: a2ff92a4799c87c945fff9e6739df4dd
     Pseudo is Norm-conserving, Zval =  5.0
     Generated using ONCVPSP code by D. R. Hamann
     Using radial grid of  602 points,  6 beta functions with: 
                l(1) =   0
                l(2) =   0
                l(3) =   1
                l(4) =   1
                l(5) =   2
                l(6) =   2

     atomic species   valence    mass     pseudopotential
     Al               11.00    26.98200     Al( 1.00)
     As                5.00    74.92200     As( 1.00)

     24 Sym. Ops. (no inversion) found


                                    s                        frac. trans.

      isym =  1     identity                                     

 cryst.   s( 1) = (     1          0          0      )
                  (     0          1          0      )
                  (     0          0          1      )

 cart.    s( 1) = (  1.0000000  0.0000000  0.0000000 )
                  (  0.0000000  1.0000000  0.0000000 )
                  (  0.0000000  0.0000000  1.0000000 )


      isym =  2     180 deg rotation - cart. axis [0,0,1]        

 cryst.   s( 2) = (     0          1         -1      )
                  (     1          0         -1      )
                  (     0          0         -1      )

 cart.    s( 2) = ( -1.0000000  0.0000000  0.0000000 )
                  (  0.0000000 -1.0000000  0.0000000 )
                  (  0.0000000  0.0000000  1.0000000 )


      isym =  3     180 deg rotation - cart. axis [0,1,0]        

 cryst.   s( 3) = (    -1          0          0      )
                  (    -1          0          1      )
                  (    -1          1          0      )

 cart.    s( 3) = ( -1.0000000  0.0000000  0.0000000 )
                  (  0.0000000  1.0000000  0.0000000 )
                  (  0.0000000  0.0000000 -1.0000000 )


      isym =  4     180 deg rotation - cart. axis [1,0,0]        

 cryst.   s( 4) = (     0         -1          1      )
                  (     0         -1          0      )
                  (     1         -1          0      )

 cart.    s( 4) = (  1.0000000  0.0000000  0.0000000 )
                  (  0.0000000 -1.0000000  0.0000000 )
                  (  0.0000000  0.0000000 -1.0000000 )


      isym =  5     120 deg rotation - cart. axis [-1,-1,-1]     

 cryst.   s( 5) = (    -1          0          1      )
                  (    -1          1          0      )
                  (    -1          0          0      )

 cart.    s( 5) = (  0.0000000  1.0000000  0.0000000 )
                  (  0.0000000  0.0000000  1.0000000 )
                  (  1.0000000  0.0000000  0.0000000 )


      isym =  6     120 deg rotation - cart. axis [-1,1,1]       

 cryst.   s( 6) = (     0          1          0      )
                  (     0          0          1      )
                  (     1          0          0      )

 cart.    s( 6) = (  0.0000000 -1.0000000  0.0000000 )
                  (  0.0000000  0.0000000  1.0000000 )
                  ( -1.0000000  0.0000000  0.0000000 )


      isym =  7     120 deg rotation - cart. axis [1,1,-1]       

 cryst.   s( 7) = (     1          0         -1      )
                  (     0          0         -1      )
                  (     0          1         -1      )

 cart.    s( 7) = (  0.0000000  1.0000000  0.0000000 )
                  (  0.0000000  0.0000000 -1.0000000 )
                  ( -1.0000000  0.0000000  0.0000000 )


      isym =  8     120 deg rotation - cart. axis [1,-1,1]       

 cryst.   s( 8) = (     0         -1          0      )
                  (     1         -1          0      )
                  (     0         -1          1      )

 cart.    s( 8) = (  0.0000000 -1.0000000  0.0000000 )
                  (  0.0000000  0.0000000 -1.0000000 )
                  (  1.0000000  0.0000000  0.0000000 )


      isym =  9     120 deg rotation - cart. axis [1,1,1]        

 cryst.   s( 9) = (     0          0         -1      )
                  (     0          1         -1      )
                  (     1          0         -1      )

 cart.    s( 9) = (  0.0000000  0.0000000  1.0000000 )
                  (  1.0000000  0.0000000  0.0000000 )
                  (  0.0000000  1.0000000  0.0000000 )


      isym = 10     120 deg rotation - cart. axis [-1,1,-1]      

 cryst.   s(10) = (    -1          1          0      )
                  (    -1          0          0      )
                  (    -1          0          1      )

 cart.    s(10) = (  0.0000000  0.0000000  1.0000000 )
                  ( -1.0000000  0.0000000  0.0000000 )
                  (  0.0000000 -1.0000000  0.0000000 )


      isym = 11     120 deg rotation - cart. axis [1,-1,-1]      

 cryst.   s(11) = (     0          0          1      )
                  (     1          0          0      )
                  (     0          1          0      )

 cart.    s(11) = (  0.0000000  0.0000000 -1.0000000 )
                  ( -1.0000000  0.0000000  0.0000000 )
                  (  0.0000000  1.0000000  0.0000000 )


      isym = 12     120 deg rotation - cart. axis [-1,-1,1]      

 cryst.   s(12) = (     1         -1          0      )
                  (     0         -1          1      )
                  (     0         -1          0      )

 cart.    s(12) = (  0.0000000  0.0000000 -1.0000000 )
                  (  1.0000000  0.0000000  0.0000000 )
                  (  0.0000000 -1.0000000  0.0000000 )


      isym = 13     inv. 180 deg rotation - cart. axis [1,1,0]   

 cryst.   s(13) = (     0          1          0      )
                  (     1          0          0      )
                  (     0          0          1      )

 cart.    s(13) = (  0.0000000 -1.0000000  0.0000000 )
                  ( -1.0000000  0.0000000  0.0000000 )
                  (  0.0000000  0.0000000  1.0000000 )


      isym = 14     inv. 180 deg rotation - cart. axis [1,-1,0]  

 cryst.   s(14) = (     1          0         -1      )
                  (     0          1         -1      )
                  (     0          0         -1      )

 cart.    s(14) = (  0.0000000  1.0000000  0.0000000 )
                  (  1.0000000  0.0000000  0.0000000 )
                  (  0.0000000  0.0000000  1.0000000 )


      isym = 15     inv.  90 deg rotation - cart. axis [0,0,-1]  

 cryst.   s(15) = (     0         -1          0      )
                  (     0         -1          1      )
                  (     1         -1          0      )

 cart.    s(15) = (  0.0000000 -1.0000000  0.0000000 )
                  (  1.0000000  0.0000000  0.0000000 )
                  (  0.0000000  0.0000000 -1.0000000 )


      isym = 16     inv.  90 deg rotation - cart. axis [0,0,1]   

 cryst.   s(16) = (    -1          0          1      )
                  (    -1          0          0      )
                  (    -1          1          0      )

 cart.    s(16) = (  0.0000000  1.0000000  0.0000000 )
                  ( -1.0000000  0.0000000  0.0000000 )
                  (  0.0000000  0.0000000 -1.0000000 )


      isym = 17     inv. 180 deg rotation - cart. axis [1,0,1]   

 cryst.   s(17) = (     1          0          0      )
                  (     0          0          1      )
                  (     0          1          0      )

 cart.    s(17) = (  0.0000000  0.0000000 -1.0000000 )
                  (  0.0000000  1.0000000  0.0000000 )
                  ( -1.0000000  0.0000000  0.0000000 )


      isym = 18     inv. 180 deg rotation - cart. axis [-1,0,1]  

 cryst.   s(18) = (    -1          0          0      )
                  (    -1          1          0      )
                  (    -1          0          1      )

 cart.    s(18) = (  0.0000000  0.0000000  1.0000000 )
                  (  0.0000000  1.0000000  0.0000000 )
                  (  1.0000000  0.0000000  0.0000000 )


      isym = 19     inv.  90 deg rotation - cart. axis [0,1,0]   

 cryst.   s(19) = (     0         -1          1      )
                  (     1         -1          0      )
                  (     0         -1          0      )

 cart.    s(19) = (  0.0000000  0.0000000 -1.0000000 )
                  (  0.0000000 -1.0000000  0.0000000 )
                  (  1.0000000  0.0000000  0.0000000 )


      isym = 20     inv.  90 deg rotation - cart. axis [0,-1,0]  

 cryst.   s(20) = (     0          1         -1      )
                  (     0          0         -1      )
                  (     1          0         -1      )

 cart.    s(20) = (  0.0000000  0.0000000  1.0000000 )
                  (  0.0000000 -1.0000000  0.0000000 )
                  ( -1.0000000  0.0000000  0.0000000 )


      isym = 21     inv. 180 deg rotation - cart. axis [0,1,1]   

 cryst.   s(21) = (     1         -1          0      )
                  (     0         -1          0      )
                  (     0         -1          1      )

 cart.    s(21) = (  1.0000000  0.0000000  0.0000000 )
                  (  0.0000000  0.0000000 -1.0000000 )
                  (  0.0000000 -1.0000000  0.0000000 )


      isym = 22     inv. 180 deg rotation - cart. axis [0,1,-1]  

 cryst.   s(22) = (     0          0          1      )
                  (     0          1          0      )
                  (     1          0          0      )

 cart.    s(22) = (  1.0000000  0.0000000  0.0000000 )
                  (  0.0000000  0.0000000  1.0000000 )
                  (  0.0000000  1.0000000  0.0000000 )


      isym = 23     inv.  90 deg rotation - cart. axis [-1,0,0]  

 cryst.   s(23) = (     0          0         -1      )
                  (     1          0         -1      )
                  (     0          1         -1      )

 cart.    s(23) = ( -1.0000000  0.0000000  0.0000000 )
                  (  0.0000000  0.0000000 -1.0000000 )
                  (  0.0000000  1.0000000  0.0000000 )


      isym = 24     inv.  90 deg rotation - cart. axis [1,0,0]   

 cryst.   s(24) = (    -1          1          0      )
                  (    -1          0          1      )
                  (    -1          0          0      )

 cart.    s(24) = ( -1.0000000  0.0000000  0.0000000 )
                  (  0.0000000  0.0000000  1.0000000 )
                  (  0.0000000 -1.0000000  0.0000000 )


     point group T_d (-43m) 
     there are  5 classes
     the character table:

       E     8C3   3C2   6S4   6s_d 
A_1    1.00  1.00  1.00  1.00  1.00
A_2    1.00  1.00  1.00 -1.00 -1.00
E      2.00 -1.00  2.00  0.00  0.00
T_1    3.00  0.00 -1.00  1.00 -1.00
T_2    3.00  0.00 -1.00 -1.00  1.00

     the symmetry operations in each class and the name of the first element:

     E        1
          identity                                               
     8C3      5    7    8    6   12    9   10   11
          120 deg rotation - cart. axis [-1,-1,-1]               
     3C2      2    3    4
          180 deg rotation - cart. axis [0,0,1]                  
     6S4     15   16   20   19   23   24
          inv.  90 deg rotation - cart. axis [0,0,-1]            
     6s_d    13   14   17   18   21   22
          inv. 180 deg rotation - cart. axis [1,1,0]             

   Cartesian axes

     site n.     atom                  positions (alat units)
         1        Al     tau(   1) = (   0.0000000   0.0000000   0.0000000  )
         2        As     tau(   2) = (  -0.2500000   0.2500000   0.2500000  )

   Crystallographic axes

     site n.     atom                  positions (cryst. coord.)
         1        Al     tau(   1) = (  0.0000000  0.0000000  0.0000000  )
         2        As     tau(   2) = (  0.2500000  0.2500000  0.2500000  )

     number of k points=    16
                       cart. coord. in units 2pi/alat
        k(    1) = (   0.0000000   0.0000000   0.0000000), wk =   0.0092593
        k(    2) = (  -0.1666667   0.1666667  -0.1666667), wk =   0.0740741
        k(    3) = (  -0.3333333   0.3333333  -0.3333333), wk =   0.0740741
        k(    4) = (   0.5000000  -0.5000000   0.5000000), wk =   0.0370370
        k(    5) = (   0.0000000   0.3333333   0.0000000), wk =   0.0555556
        k(    6) = (  -0.1666667   0.5000000  -0.1666667), wk =   0.2222222
        k(    7) = (   0.6666667  -0.3333333   0.6666667), wk =   0.2222222
        k(    8) = (   0.5000000  -0.1666667   0.5000000), wk =   0.2222222
        k(    9) = (   0.3333333   0.0000000   0.3333333), wk =   0.1111111
        k(   10) = (   0.0000000   0.6666667   0.0000000), wk =   0.0555556
        k(   11) = (   0.8333333  -0.1666667   0.8333333), wk =   0.2222222
        k(   12) = (   0.6666667  -0.0000000   0.6666667), wk =   0.1111111
        k(   13) = (   0.0000000  -1.0000000   0.0000000), wk =   0.0277778
        k(   14) = (   0.6666667  -0.3333333   1.0000000), wk =   0.2222222
        k(   15) = (   0.5000000  -0.1666667   0.8333333), wk =   0.2222222
        k(   16) = (  -0.3333333  -1.0000000   0.0000000), wk =   0.1111111

                       cryst. coord.
        k(    1) = (   0.0000000   0.0000000   0.0000000), wk =   0.0092593
        k(    2) = (   0.0000000   0.0000000   0.1666667), wk =   0.0740741
        k(    3) = (   0.0000000   0.0000000   0.3333333), wk =   0.0740741
        k(    4) = (   0.0000000   0.0000000  -0.5000000), wk =   0.0370370
        k(    5) = (   0.0000000   0.1666667   0.1666667), wk =   0.0555556
        k(    6) = (   0.0000000   0.1666667   0.3333333), wk =   0.2222222
        k(    7) = (   0.0000000   0.1666667  -0.5000000), wk =   0.2222222
        k(    8) = (   0.0000000   0.1666667  -0.3333333), wk =   0.2222222
        k(    9) = (   0.0000000   0.1666667  -0.1666667), wk =   0.1111111
        k(   10) = (   0.0000000   0.3333333   0.3333333), wk =   0.0555556
        k(   11) = (   0.0000000   0.3333333  -0.5000000), wk =   0.2222222
        k(   12) = (   0.0000000   0.3333333  -0.3333333), wk =   0.1111111
        k(   13) = (   0.0000000  -0.5000000  -0.5000000), wk =   0.0277778
        k(   14) = (   0.1666667   0.3333333  -0.5000000), wk =   0.2222222
        k(   15) = (   0.1666667   0.3333333  -0.3333333), wk =   0.2222222
        k(   16) = (   0.1666667  -0.5000000  -0.3333333), wk =   0.1111111

     Dense  grid:    19195 G-vectors     FFT dimensions: (  40,  40,  40)

     Dynamical RAM for                 wfc:       0.15 MB

     Dynamical RAM for     wfc (w. buffer):       2.49 MB

     Dynamical RAM for                 EXX:     510.22 MB

     Dynamical RAM for           str. fact:       0.15 MB

     Dynamical RAM for           local pot:       0.00 MB

     Dynamical RAM for          nlocal pot:       0.24 MB

     Dynamical RAM for                qrad:       2.72 MB

     Dynamical RAM for          rho,v,vnew:       0.59 MB

     Dynamical RAM for               rhoin:       0.20 MB

     Dynamical RAM for            rho*nmix:       1.17 MB

     Dynamical RAM for           G-vectors:       0.31 MB

     Dynamical RAM for          h,s,v(r/c):       0.05 MB

     Dynamical RAM for          <psi|beta>:       0.01 MB

     Dynamical RAM for                 psi:       0.29 MB

     Dynamical RAM for                hpsi:       0.29 MB

     Dynamical RAM for      wfcinit/wfcrot:       0.30 MB

     Estimated static dynamical RAM per process >     517.74 MB

     Estimated max dynamical RAM per process >     519.55 MB

     Estimated total dynamical RAM >       2.03 GB
     EXX: ACE will be initialized later

     Initial potential from superposition of free atoms

     starting charge      15.8865, renormalised to      16.0000
     Starting wfcs are random

     total cpu time spent up to now is        0.3 secs

     Self-consistent Calculation

     iteration #  1     ecut=    60.00 Ry     beta= 0.70
     Davidson diagonalization with overlap

---- Real-time Memory Report at c_bands before calling an iterative solver
            68 MiB given to the printing process from OS
             0 MiB allocation reported by mallinfo(arena+hblkhd)
         13563 MiB available memory on the node where the printing process lives
------------------
     ethr =  1.00E-02,  avg # of iterations =  7.6

     Threshold (ethr) on eigenvalues was too large:
     Diagonalizing with lowered threshold

     Davidson diagonalization with overlap

---- Real-time Memory Report at c_bands before calling an iterative solver
            69 MiB given to the printing process from OS
             0 MiB allocation reported by mallinfo(arena+hblkhd)
         13559 MiB available memory on the node where the printing process lives
------------------
     ethr =  5.42E-04,  avg # of iterations =  1.9

     total cpu time spent up to now is        0.7 secs

     total energy              =    -151.14247367 Ry
     estimated scf accuracy    <       0.08318034 Ry

     iteration #  2     ecut=    60.00 Ry     beta= 0.70
     Davidson diagonalization with overlap

---- Real-time Memory Report at c_bands before calling an iterative solver
            71 MiB given to the printing process from OS
             0 MiB allocation reported by mallinfo(arena+hblkhd)
         13553 MiB available memory on the node where the printing process lives
------------------
     ethr =  5.20E-04,  avg # of iterations =  2.2

     total cpu time spent up to now is        0.8 secs

     total energy              =    -151.15929471 Ry
     estimated scf accuracy    <       0.01258337 Ry

     iteration #  3     ecut=    60.00 Ry     beta= 0.70
     Davidson diagonalization with overlap

---- Real-time Memory Report at c_bands before calling an iterative solver
            71 MiB given to the printing process from OS
             0 MiB allocation reported by mallinfo(arena+hblkhd)
         13552 MiB available memory on the node where the printing process lives
------------------
     ethr =  7.86E-05,  avg # of iterations =  2.9

     total cpu time spent up to now is        1.0 secs

     total energy              =    -151.16151220 Ry
     estimated scf accuracy    <       0.00048951 Ry

     iteration #  4     ecut=    60.00 Ry     beta= 0.70
     Davidson diagonalization with overlap

---- Real-time Memory Report at c_bands before calling an iterative solver
            71 MiB given to the printing process from OS
             0 MiB allocation reported by mallinfo(arena+hblkhd)
         13551 MiB available memory on the node where the printing process lives
------------------
     ethr =  3.06E-06,  avg # of iterations =  4.3

     total cpu time spent up to now is        1.1 secs

     total energy              =    -151.16153519 Ry
     estimated scf accuracy    <       0.00000408 Ry

     iteration #  5     ecut=    60.00 Ry     beta= 0.70
     Davidson diagonalization with overlap

---- Real-time Memory Report at c_bands before calling an iterative solver
            72 MiB given to the printing process from OS
             0 MiB allocation reported by mallinfo(arena+hblkhd)
         13551 MiB available memory on the node where the printing process lives
------------------
     ethr =  2.55E-08,  avg # of iterations =  2.0

     total cpu time spent up to now is        1.3 secs

     total energy              =    -151.16153660 Ry
     estimated scf accuracy    <       0.00000010 Ry

     iteration #  6     ecut=    60.00 Ry     beta= 0.70
     Davidson diagonalization with overlap

---- Real-time Memory Report at c_bands before calling an iterative solver
            72 MiB given to the printing process from OS
             0 MiB allocation reported by mallinfo(arena+hblkhd)
         13551 MiB available memory on the node where the printing process lives
------------------
     ethr =  6.07E-10,  avg # of iterations =  2.0

     total cpu time spent up to now is        1.4 secs

     End of self-consistent calculation

          k = 0.0000 0.0000 0.0000 (  2421 PWs)   bands (ev):

   -96.9288 -58.4190 -58.4190 -58.4190  -5.8860   5.9772   5.9772   5.9772
     8.0138  10.2533  10.2533  10.2533  14.8592  15.0551  15.0551  17.4336

     occupation numbers 
     1.0000   1.0000   1.0000   1.0000   1.0000   1.0000   1.0000   1.0000
     0.0000   0.0000   0.0000   0.0000   0.0000   0.0000   0.0000   0.0000

          k =-0.1667 0.1667-0.1667 (  2397 PWs)   bands (ev):

   -96.9280 -58.4191 -58.4191 -58.4191  -5.6174   3.8763   5.7123   5.7123
     8.7860  10.6926  10.6926  11.1649  14.2542  14.2542  15.7275  17.0315

     occupation numbers 
     1.0000   1.0000   1.0000   1.0000   1.0000   1.0000   1.0000   1.0000
     0.0000   0.0000   0.0000   0.0000   0.0000   0.0000   0.0000   0.0000

          k =-0.3333 0.3333-0.3333 (  2424 PWs)   bands (ev):

   -96.9290 -58.4193 -58.4191 -58.4191  -4.9374   1.4789   5.3100   5.3100
     8.3327  10.8359  10.8359  13.4698  15.0678  15.0678  15.3527  19.9499

     occupation numbers 
     1.0000   1.0000   1.0000   1.0000   1.0000   1.0000   1.0000   1.0000
     0.0000   0.0000   0.0000   0.0000   0.0000   0.0000   0.0000   0.0000

          k = 0.5000-0.5000 0.5000 (  2392 PWs)   bands (ev):

   -96.9281 -58.4193 -58.4191 -58.4191  -4.4633   0.3988   5.1479   5.1479
     8.1071  10.6554  10.6554  13.7261  17.1604  17.6056  17.6059  18.1457

     occupation numbers 
     1.0000   1.0000   1.0000   1.0000   1.0000   1.0000   1.0000   1.0000
     0.0000   0.0000   0.0000   0.0000   0.0000   0.0000   0.0000   0.0000

          k = 0.0000 0.3333 0.0000 (  2405 PWs)   bands (ev):

   -96.9282 -58.4191 -58.4191 -58.4191  -5.5266   3.9693   5.1896   5.1896
     9.2516   9.8987  11.5919  11.5919  12.9306  15.5479  16.6584  18.2936

     occupation numbers 
     1.0000   1.0000   1.0000   1.0000   1.0000   1.0000   1.0000   1.0000
     0.0000   0.0000   0.0000   0.0000   0.0000   0.0000   0.0000   0.0000

          k =-0.1667 0.5000-0.1667 (  2398 PWs)   bands (ev):

   -96.9282 -58.4192 -58.4191 -58.4191  -4.9720   2.1280   4.5429   4.7428
     9.0553  10.4772  11.5393  12.1960  14.7791  16.1881  17.0523  19.3242

     occupation numbers 
     1.0000   1.0000   1.0000   1.0000   1.0000   1.0000   1.0000   1.0000
     0.0000   0.0000   0.0000   0.0000   0.0000   0.0000   0.0000   0.0000

          k = 0.6667-0.3333 0.6667 (  2390 PWs)   bands (ev):

   -96.9281 -58.4193 -58.4191 -58.4191  -4.3562   0.7066   3.8593   4.7083
     8.9362  10.7548  11.7596  13.1108  15.6802  17.4478  17.9032  18.7758

     occupation numbers 
     1.0000   1.0000   1.0000   1.0000   1.0000   1.0000   1.0000   1.0000
     0.0000   0.0000   0.0000   0.0000   0.0000   0.0000   0.0000   0.0000

          k = 0.5000-0.1667 0.5000 (  2407 PWs)   bands (ev):

   -96.9286 -58.4193 -58.4191 -58.4191  -4.5248   1.0577   3.6525   5.0918
     9.2522  10.8431  11.4197  13.4325  14.4527  16.0561  17.6756  19.3194

     occupation numbers 
     1.0000   1.0000   1.0000   1.0000   1.0000   1.0000   1.0000   1.0000
     0.0000   0.0000   0.0000   0.0000   0.0000   0.0000   0.0000   0.0000

          k = 0.3333 0.0000 0.3333 (  2403 PWs)   bands (ev):

   -96.9283 -58.4192 -58.4191 -58.4191  -5.2035   2.6646   4.2893   5.6341
     9.6385  10.7331  10.9571  11.8806  13.2739  15.5694  17.4043  17.9093

     occupation numbers 
     1.0000   1.0000   1.0000   1.0000   1.0000   1.0000   1.0000   1.0000
     0.0000   0.0000   0.0000   0.0000   0.0000   0.0000   0.0000   0.0000

          k = 0.0000 0.6667 0.0000 (  2397 PWs)   bands (ev):

   -96.9283 -58.4193 -58.4191 -58.4191  -4.5975   1.6830   4.1788   4.1788
     7.9577   8.9734  14.1553  14.1553  14.9963  17.0206  19.6724  20.4198

     occupation numbers 
     1.0000   1.0000   1.0000   1.0000   1.0000   1.0000   1.0000   1.0000
     0.0000   0.0000   0.0000   0.0000   0.0000   0.0000   0.0000   0.0000

          k = 0.8333-0.1667 0.8333 (  2398 PWs)   bands (ev):

   -96.9283 -58.4193 -58.4192 -58.4191  -4.0866   0.8831   3.1778   4.0576
     8.0603   9.6989  13.9291  14.2973  16.7261  17.6791  19.1007  19.4536

     occupation numbers 
     1.0000   1.0000   1.0000   1.0000   1.0000   1.0000   1.0000   1.0000
     0.0000   0.0000   0.0000   0.0000   0.0000   0.0000   0.0000   0.0000

          k = 0.6667-0.0000 0.6667 (  2381 PWs)   bands (ev):

   -96.9278 -58.4193 -58.4192 -58.4191  -4.0493   0.9149   2.4480   4.4356
     8.5647  12.3164  13.2869  13.5949  13.9181  14.9345  20.3507  20.7526

     occupation numbers 
     1.0000   1.0000   1.0000   1.0000   1.0000   1.0000   1.0000   1.0000
     0.0000   0.0000   0.0000   0.0000   0.0000   0.0000   0.0000   0.0000

          k = 0.0000-1.0000 0.0000 (  2402 PWs)   bands (ev):

   -96.9284 -58.4193 -58.4192 -58.4192  -3.9116   0.5392   3.7967   3.7967
     7.4012   8.2657  16.3107  16.3107  17.7173  18.6731  18.6731  19.1437

     occupation numbers 
     1.0000   1.0000   1.0000   1.0000   1.0000   1.0000   1.0000   1.0000
     0.0000   0.0000   0.0000   0.0000   0.0000   0.0000   0.0000   0.0000

          k = 0.6667-0.3333 1.0000 (  2399 PWs)   bands (ev):

   -96.9283 -58.4193 -58.4192 -58.4191  -4.4105   1.3319   3.2499   4.3235
     9.6420  10.5217  11.1322  13.9107  15.2637  16.7239  19.0484  19.9603

     occupation numbers 
     1.0000   1.0000   1.0000   1.0000   1.0000   1.0000   1.0000   1.0000
     0.0000   0.0000   0.0000   0.0000   0.0000   0.0000   0.0000   0.0000

          k = 0.5000-0.1667 0.8333 (  2396 PWs)   bands (ev):

   -96.9282 -58.4193 -58.4192 -58.4191  -4.0489   0.8460   2.7983   3.9432
     9.9113  10.5576  12.6868  13.4021  14.3466  17.5056  18.8392  19.5402

     occupation numbers 
     1.0000   1.0000   1.0000   1.0000   1.0000   1.0000   1.0000   1.0000
     0.0000   0.0000   0.0000   0.0000   0.0000   0.0000   0.0000   0.0000

          k =-0.3333-1.0000 0.0000 (  2402 PWs)   bands (ev):

   -96.9284 -58.4193 -58.4192 -58.4192  -3.8875   0.7759   3.0358   3.2795
     9.1437  10.0901  13.1041  13.8149  16.5872  18.3713  18.5895  19.9060

     occupation numbers 
     1.0000   1.0000   1.0000   1.0000   1.0000   1.0000   1.0000   1.0000
     0.0000   0.0000   0.0000   0.0000   0.0000   0.0000   0.0000   0.0000

     highest occupied, lowest unoccupied level (ev):     5.9772    7.4012

!    total energy              =    -151.16153663 Ry
     estimated scf accuracy    <          3.0E-09 Ry

     convergence has been achieved in   6 iterations

     Using ACE for calculation of exact exchange

     EXX grid:    19195 G-vectors     FFT dimensions: (  40,  40,  40)
     ACE projected onto    16 (nbndproj) and applied to    16 (nbnd) bands

     EXX: now go back to refine exchange calculation

     total cpu time spent up to now is      236.1 secs

     Self-consistent Calculation

     iteration #  1     ecut=    60.00 Ry     beta= 0.70
     Davidson diagonalization with overlap

---- Real-time Memory Report at c_bands before calling an iterative solver
          1059 MiB given to the printing process from OS
             0 MiB allocation reported by mallinfo(arena+hblkhd)
          9630 MiB available memory on the node where the printing process lives
------------------
     ethr =  6.07E-10,  avg # of iterations =  6.5

     total cpu time spent up to now is      236.4 secs

     total energy              =    -151.20524521 Ry
     estimated scf accuracy    <       0.00031145 Ry

     iteration #  2     ecut=    60.00 Ry     beta= 0.70
     Davidson diagonalization with overlap

---- Real-time Memory Report at c_bands before calling an iterative solver
          1059 MiB given to the printing process from OS
             0 MiB allocation reported by mallinfo(arena+hblkhd)
          9628 MiB available memory on the node where the printing process lives
------------------
     ethr =  1.95E-06,  avg # of iterations =  2.0

     total cpu time spent up to now is      236.5 secs

     total energy              =    -151.20530672 Ry
     estimated scf accuracy    <       0.00003703 Ry

     iteration #  3     ecut=    60.00 Ry     beta= 0.70
     Davidson diagonalization with overlap

---- Real-time Memory Report at c_bands before calling an iterative solver
          1059 MiB given to the printing process from OS
             0 MiB allocation reported by mallinfo(arena+hblkhd)
          9627 MiB available memory on the node where the printing process lives
------------------
     ethr =  2.31E-07,  avg # of iterations =  2.0

     total cpu time spent up to now is      236.7 secs

     total energy              =    -151.20531421 Ry
     estimated scf accuracy    <       0.00000152 Ry

     iteration #  4     ecut=    60.00 Ry     beta= 0.70
     Davidson diagonalization with overlap

---- Real-time Memory Report at c_bands before calling an iterative solver
          1059 MiB given to the printing process from OS
             0 MiB allocation reported by mallinfo(arena+hblkhd)
          9627 MiB available memory on the node where the printing process lives
------------------
     ethr =  9.49E-09,  avg # of iterations =  1.4

     total cpu time spent up to now is      236.8 secs

     End of self-consistent calculation

          k = 0.0000 0.0000 0.0000 (  2421 PWs)   bands (ev):

  -108.9891 -63.0734 -63.0734 -63.0734  -7.4232   5.5674   5.5675   5.5675
     8.3229  10.8037  10.8038  10.8038  15.3982  15.6800  15.6800  18.0829

     occupation numbers 
     1.0000   1.0000   1.0000   1.0000   1.0000   1.0000   1.0000   1.0000
     0.0000   0.0000   0.0000   0.0000   0.0000   0.0000   0.0000   0.0000

          k =-0.1667 0.1667-0.1667 (  2397 PWs)   bands (ev):

  -108.9862 -63.0739 -63.0726 -63.0726  -7.1349   3.3011   5.2863   5.2863
     9.1631  11.2702  11.2702  11.6935  14.8248  14.8248  16.3254  17.6795

     occupation numbers 
     1.0000   1.0000   1.0000   1.0000   1.0000   1.0000   1.0000   1.0000
     0.0000   0.0000   0.0000   0.0000   0.0000   0.0000   0.0000   0.0000

          k =-0.3333 0.3333-0.3333 (  2424 PWs)   bands (ev):

  -108.9893 -63.0738 -63.0735 -63.0735  -6.3946   0.6745   4.8595   4.8595
     8.6654  11.3739  11.3739  14.0809  15.7235  15.7235  15.9503  20.9218

     occupation numbers 
     1.0000   1.0000   1.0000   1.0000   1.0000   1.0000   1.0000   1.0000
     0.0000   0.0000   0.0000   0.0000   0.0000   0.0000   0.0000   0.0000

          k = 0.5000-0.5000 0.5000 (  2392 PWs)   bands (ev):

  -108.9863 -63.0743 -63.0727 -63.0727  -5.8888  -0.5038   4.6837   4.6837
     8.4137  11.1623  11.1626  14.2476  17.9150  18.3963  18.4003  18.9834

     occupation numbers 
     1.0000   1.0000   1.0000   1.0000   1.0000   1.0000   1.0000   1.0000
     0.0000   0.0000   0.0000   0.0000   0.0000   0.0000   0.0000   0.0000

          k = 0.0000 0.3333 0.0000 (  2405 PWs)   bands (ev):

  -108.9859 -63.0741 -63.0723 -63.0723  -7.0373   3.3967   4.7291   4.7292
     9.6782  10.3344  12.2236  12.2237  13.4200  16.2024  17.3564  18.9709

     occupation numbers 
     1.0000   1.0000   1.0000   1.0000   1.0000   1.0000   1.0000   1.0000
     0.0000   0.0000   0.0000   0.0000   0.0000   0.0000   0.0000   0.0000

          k =-0.1667 0.5000-0.1667 (  2398 PWs)   bands (ev):

  -108.9864 -63.0739 -63.0729 -63.0727  -6.4348   1.3767   4.0337   4.2498
     9.4330  10.9888  12.0391  12.8360  15.4904  16.8909  17.7131  20.1762

     occupation numbers 
     1.0000   1.0000   1.0000   1.0000   1.0000   1.0000   1.0000   1.0000
     0.0000   0.0000   0.0000   0.0000   0.0000   0.0000   0.0000   0.0000

          k = 0.6667-0.3333 0.6667 (  2390 PWs)   bands (ev):

  -108.9856 -63.0744 -63.0726 -63.0724  -5.7717  -0.1754   3.2923   4.2117
     9.2997  11.2412  12.3387  13.7433  16.3411  18.2423  18.6521  19.6350

     occupation numbers 
     1.0000   1.0000   1.0000   1.0000   1.0000   1.0000   1.0000   1.0000
     0.0000   0.0000   0.0000   0.0000   0.0000   0.0000   0.0000   0.0000

          k = 0.5000-0.1667 0.5000 (  2407 PWs)   bands (ev):

  -108.9868 -63.0741 -63.0730 -63.0727  -5.9519   0.2079   3.0682   4.6238
     9.6510  11.3181  12.0007  14.0829  15.0792  16.7934  18.3824  20.2583

     occupation numbers 
     1.0000   1.0000   1.0000   1.0000   1.0000   1.0000   1.0000   1.0000
     0.0000   0.0000   0.0000   0.0000   0.0000   0.0000   0.0000   0.0000

          k = 0.3333 0.0000 0.3333 (  2403 PWs)   bands (ev):

  -108.9859 -63.0742 -63.0725 -63.0723  -6.6871   1.9676   3.7601   5.2007
    10.1026  11.2036  11.5665  12.4317  13.7835  16.2708  18.1779  18.5681

     occupation numbers 
     1.0000   1.0000   1.0000   1.0000   1.0000   1.0000   1.0000   1.0000
     0.0000   0.0000   0.0000   0.0000   0.0000   0.0000   0.0000   0.0000

          k = 0.0000 0.6667 0.0000 (  2397 PWs)   bands (ev):

  -108.9886 -63.0738 -63.0736 -63.0736  -6.0235   0.8749   3.6428   3.6428
     8.2673   9.3099  14.9421  14.9423  15.7199  17.7419  20.6009  21.2618

     occupation numbers 
     1.0000   1.0000   1.0000   1.0000   1.0000   1.0000   1.0000   1.0000
     0.0000   0.0000   0.0000   0.0000   0.0000   0.0000   0.0000   0.0000

          k = 0.8333-0.1667 0.8333 (  2398 PWs)   bands (ev):

  -108.9865 -63.0742 -63.0729 -63.0728  -5.4754  -0.0058   2.5617   3.5116
     8.3631  10.0959  14.6546  15.0433  17.5650  18.4876  20.1116  20.3421

     occupation numbers 
     1.0000   1.0000   1.0000   1.0000   1.0000   1.0000   1.0000   1.0000
     0.0000   0.0000   0.0000   0.0000   0.0000   0.0000   0.0000   0.0000

          k = 0.6667-0.0000 0.6667 (  2381 PWs)   bands (ev):

  -108.9880 -63.0738 -63.0738 -63.0736  -5.4302   0.0282   1.7699   3.9207
     8.8970  12.8627  13.9950  14.2951  14.6337  15.5672  21.1049  21.5718

     occupation numbers 
     1.0000   1.0000   1.0000   1.0000   1.0000   1.0000   1.0000   1.0000
     0.0000   0.0000   0.0000   0.0000   0.0000   0.0000   0.0000   0.0000

          k = 0.0000-1.0000 0.0000 (  2402 PWs)   bands (ev):

  -108.9860 -63.0745 -63.0726 -63.0726  -5.2873  -0.3845   3.2293   3.2293
     7.6743   8.5548  17.2394  17.2394  18.5936  19.5462  19.5463  19.9648

     occupation numbers 
     1.0000   1.0000   1.0000   1.0000   1.0000   1.0000   1.0000   1.0000
     0.0000   0.0000   0.0000   0.0000   0.0000   0.0000   0.0000   0.0000

          k = 0.6667-0.3333 1.0000 (  2399 PWs)   bands (ev):

  -108.9859 -63.0743 -63.0726 -63.0725  -5.8280   0.4938   2.6354   3.7993
    10.0471  11.0038  11.6435  14.6515  15.9686  17.5415  19.8317  20.8969

     occupation numbers 
     1.0000   1.0000   1.0000   1.0000   1.0000   1.0000   1.0000   1.0000
     0.0000   0.0000   0.0000   0.0000   0.0000   0.0000   0.0000   0.0000

          k = 0.5000-0.1667 0.8333 (  2396 PWs)   bands (ev):

  -108.9864 -63.0741 -63.0730 -63.0729  -5.4354  -0.0418   2.1442   3.3925
    10.3069  11.0576  13.3162  14.0273  15.0942  18.2987  19.7749  20.2904

     occupation numbers 
     1.0000   1.0000   1.0000   1.0000   1.0000   1.0000   1.0000   1.0000
     0.0000   0.0000   0.0000   0.0000   0.0000   0.0000   0.0000   0.0000

          k =-0.3333-1.0000 0.0000 (  2402 PWs)   bands (ev):

  -108.9860 -63.0744 -63.0727 -63.0726  -5.2615  -0.1301   2.4007   2.6852
     9.5082  10.5189  13.7722  14.4969  17.4507  19.3581  19.4260  20.8554

     occupation numbers 
     1.0000   1.0000   1.0000   1.0000   1.0000   1.0000   1.0000   1.0000
     0.0000   0.0000   0.0000   0.0000   0.0000   0.0000   0.0000   0.0000

     highest occupied, lowest unoccupied level (ev):     5.5675    7.6743

!    total energy              =    -151.20531437 Ry
     estimated scf accuracy    <          8.5E-09 Ry

     convergence has been achieved in   4 iterations

     Using ACE for calculation of exact exchange
     ACE projected onto    16 (nbndproj) and applied to    16 (nbnd) bands

     total energy              =    -151.20557181 Ry
     Harris-Foulkes estimate   =    -151.20557181 Ry
     est. exchange err (dexx)  =       0.00025744 Ry
     - averaged Fock potential =      14.84801251 Ry
     + Fock energy (ACE)       =      -7.42790312 Ry

     EXX: now go back to refine exchange calculation

     total cpu time spent up to now is      471.7 secs

     Self-consistent Calculation

     iteration #  1     ecut=    60.00 Ry     beta= 0.70
     Davidson diagonalization with overlap

---- Real-time Memory Report at c_bands before calling an iterative solver
          1059 MiB given to the printing process from OS
             0 MiB allocation reported by mallinfo(arena+hblkhd)
          9634 MiB available memory on the node where the printing process lives
------------------
     ethr =  9.49E-09,  avg # of iterations =  3.2

     total cpu time spent up to now is      471.9 secs

     total energy              =    -151.20559892 Ry
     estimated scf accuracy    <       0.00000590 Ry

     iteration #  2     ecut=    60.00 Ry     beta= 0.70
     Davidson diagonalization with overlap

---- Real-time Memory Report at c_bands before calling an iterative solver
          1059 MiB given to the printing process from OS
             0 MiB allocation reported by mallinfo(arena+hblkhd)
          9626 MiB available memory on the node where the printing process lives
------------------
     ethr =  3.69E-08,  avg # of iterations =  2.0

     total cpu time spent up to now is      472.0 secs

     total energy              =    -151.20559994 Ry
     estimated scf accuracy    <       0.00000067 Ry

     iteration #  3     ecut=    60.00 Ry     beta= 0.70
     Davidson diagonalization with overlap

---- Real-time Memory Report at c_bands before calling an iterative solver
          1059 MiB given to the printing process from OS
             0 MiB allocation reported by mallinfo(arena+hblkhd)
          9626 MiB available memory on the node where the printing process lives
------------------
     ethr =  4.17E-09,  avg # of iterations =  2.0

     total cpu time spent up to now is      472.2 secs

     total energy              =    -151.20560008 Ry
     estimated scf accuracy    <       0.00000003 Ry

     iteration #  4     ecut=    60.00 Ry     beta= 0.70
     Davidson diagonalization with overlap

---- Real-time Memory Report at c_bands before calling an iterative solver
          1059 MiB given to the printing process from OS
             0 MiB allocation reported by mallinfo(arena+hblkhd)
          9624 MiB available memory on the node where the printing process lives
------------------
     ethr =  2.03E-10,  avg # of iterations =  1.2

     total cpu time spent up to now is      472.3 secs

     End of self-consistent calculation

          k = 0.0000 0.0000 0.0000 (  2421 PWs)   bands (ev):

  -108.9919 -63.0995 -63.0995 -63.0995  -7.4224   5.5543   5.5543   5.5543
     8.3445  10.8097  10.8097  10.8097  15.4071  15.6774  15.6774  18.0857

     occupation numbers 
     1.0000   1.0000   1.0000   1.0000   1.0000   1.0000   1.0000   1.0000
     0.0000   0.0000   0.0000   0.0000   0.0000   0.0000   0.0000   0.0000

          k =-0.1667 0.1667-0.1667 (  2397 PWs)   bands (ev):

  -108.9893 -63.1000 -63.0989 -63.0989  -7.1340   3.2998   5.2748   5.2748
     9.1787  11.2747  11.2747  11.6978  14.8230  14.8230  16.3307  17.6841

     occupation numbers 
     1.0000   1.0000   1.0000   1.0000   1.0000   1.0000   1.0000   1.0000
     0.0000   0.0000   0.0000   0.0000   0.0000   0.0000   0.0000   0.0000

          k =-0.3333 0.3333-0.3333 (  2424 PWs)   bands (ev):

  -108.9921 -63.1000 -63.0997 -63.0997  -6.3950   0.6763   4.8491   4.8491
     8.6800  11.3778  11.3778  14.0856  15.7222  15.7222  15.9549  20.9244

     occupation numbers 
     1.0000   1.0000   1.0000   1.0000   1.0000   1.0000   1.0000   1.0000
     0.0000   0.0000   0.0000   0.0000   0.0000   0.0000   0.0000   0.0000

          k = 0.5000-0.5000 0.5000 (  2392 PWs)   bands (ev):

  -108.9894 -63.1004 -63.0990 -63.0990  -5.8895  -0.5006   4.6738   4.6738
     8.4286  11.1659  11.1659  14.2521  17.9199  18.3971  18.3996  18.9802

     occupation numbers 
     1.0000   1.0000   1.0000   1.0000   1.0000   1.0000   1.0000   1.0000
     0.0000   0.0000   0.0000   0.0000   0.0000   0.0000   0.0000   0.0000

          k = 0.0000 0.3333 0.0000 (  2405 PWs)   bands (ev):

  -108.9890 -63.1002 -63.0986 -63.0986  -7.0363   3.3961   4.7201   4.7201
     9.6863  10.3455  12.2259  12.2259  13.4198  16.1994  17.3626  18.9730

     occupation numbers 
     1.0000   1.0000   1.0000   1.0000   1.0000   1.0000   1.0000   1.0000
     0.0000   0.0000   0.0000   0.0000   0.0000   0.0000   0.0000   0.0000

          k =-0.1667 0.5000-0.1667 (  2398 PWs)   bands (ev):

  -108.9895 -63.1000 -63.0992 -63.0990  -6.4346   1.3782   4.0286   4.2417
     9.4407  10.9970  12.0397  12.8373  15.4930  16.8892  17.7159  20.1786

     occupation numbers 
     1.0000   1.0000   1.0000   1.0000   1.0000   1.0000   1.0000   1.0000
     0.0000   0.0000   0.0000   0.0000   0.0000   0.0000   0.0000   0.0000

          k = 0.6667-0.3333 0.6667 (  2390 PWs)   bands (ev):

  -108.9888 -63.1005 -63.0989 -63.0988  -5.7725  -0.1722   3.2894   4.2036
     9.3083  11.2451  12.3405  13.7459  16.3437  18.2422  18.6552  19.6324

     occupation numbers 
     1.0000   1.0000   1.0000   1.0000   1.0000   1.0000   1.0000   1.0000
     0.0000   0.0000   0.0000   0.0000   0.0000   0.0000   0.0000   0.0000

          k = 0.5000-0.1667 0.5000 (  2407 PWs)   bands (ev):

  -108.9899 -63.1002 -63.0993 -63.0990  -5.9526   0.2106   3.0655   4.6145
     9.6607  11.3208  12.0035  14.0865  15.0776  16.7967  18.3838  20.2547

     occupation numbers 
     1.0000   1.0000   1.0000   1.0000   1.0000   1.0000   1.0000   1.0000
     0.0000   0.0000   0.0000   0.0000   0.0000   0.0000   0.0000   0.0000

          k = 0.3333 0.0000 0.3333 (  2403 PWs)   bands (ev):

  -108.9891 -63.1002 -63.0988 -63.0986  -6.6865   1.9684   3.7557   5.1896
    10.1153  11.2051  11.5715  12.4351  13.7812  16.2721  18.1813  18.5687

     occupation numbers 
     1.0000   1.0000   1.0000   1.0000   1.0000   1.0000   1.0000   1.0000
     0.0000   0.0000   0.0000   0.0000   0.0000   0.0000   0.0000   0.0000

          k = 0.0000 0.6667 0.0000 (  2397 PWs)   bands (ev):

  -108.9914 -63.0999 -63.0998 -63.0998  -6.0245   0.8771   3.6357   3.6357
     8.2763   9.3170  14.9436  14.9437  15.7241  17.7396  20.6038  21.2603

     occupation numbers 
     1.0000   1.0000   1.0000   1.0000   1.0000   1.0000   1.0000   1.0000
     0.0000   0.0000   0.0000   0.0000   0.0000   0.0000   0.0000   0.0000

          k = 0.8333-0.1667 0.8333 (  2398 PWs)   bands (ev):

  -108.9896 -63.1003 -63.0992 -63.0992  -5.4768  -0.0020   2.5589   3.5046
     8.3707  10.1002  14.6580  15.0449  17.5696  18.4871  20.1110  20.3384

     occupation numbers 
     1.0000   1.0000   1.0000   1.0000   1.0000   1.0000   1.0000   1.0000
     0.0000   0.0000   0.0000   0.0000   0.0000   0.0000   0.0000   0.0000

          k = 0.6667-0.0000 0.6667 (  2381 PWs)   bands (ev):

  -108.9908 -63.1000 -63.1000 -63.0998  -5.4325   0.0325   1.7682   3.9129
     8.9050  12.8642  13.9979  14.2978  14.6384  15.5645  21.1052  21.5672

     occupation numbers 
     1.0000   1.0000   1.0000   1.0000   1.0000   1.0000   1.0000   1.0000
     0.0000   0.0000   0.0000   0.0000   0.0000   0.0000   0.0000   0.0000

          k = 0.0000-1.0000 0.0000 (  2402 PWs)   bands (ev):

  -108.9892 -63.1006 -63.0989 -63.0989  -5.2889  -0.3803   3.2227   3.2227
     7.6824   8.5628  17.2451  17.2451  18.6005  19.5410  19.5410  19.9658

     occupation numbers 
     1.0000   1.0000   1.0000   1.0000   1.0000   1.0000   1.0000   1.0000
     0.0000   0.0000   0.0000   0.0000   0.0000   0.0000   0.0000   0.0000

          k = 0.6667-0.3333 1.0000 (  2399 PWs)   bands (ev):

  -108.9891 -63.1004 -63.0989 -63.0989  -5.8287   0.4967   2.6327   3.7939
    10.0506  11.0105  11.6456  14.6532  15.9702  17.5436  19.8321  20.8921

     occupation numbers 
     1.0000   1.0000   1.0000   1.0000   1.0000   1.0000   1.0000   1.0000
     0.0000   0.0000   0.0000   0.0000   0.0000   0.0000   0.0000   0.0000

          k = 0.5000-0.1667 0.8333 (  2396 PWs)   bands (ev):

  -108.9895 -63.1002 -63.0993 -63.0992  -5.4370  -0.0377   2.1422   3.3882
    10.3099  11.0621  13.3201  14.0278  15.0966  18.3007  19.7721  20.2909

     occupation numbers 
     1.0000   1.0000   1.0000   1.0000   1.0000   1.0000   1.0000   1.0000
     0.0000   0.0000   0.0000   0.0000   0.0000   0.0000   0.0000   0.0000

          k =-0.3333-1.0000 0.0000 (  2402 PWs)   bands (ev):

  -108.9892 -63.1005 -63.0990 -63.0989  -5.2632  -0.1257   2.3973   2.6828
     9.5112  10.5234  13.7756  14.4992  17.4544  19.3550  19.4288  20.8520

     occupation numbers 
     1.0000   1.0000   1.0000   1.0000   1.0000   1.0000   1.0000   1.0000
     0.0000   0.0000   0.0000   0.0000   0.0000   0.0000   0.0000   0.0000

     highest occupied, lowest unoccupied level (ev):     5.5543    7.6824

!    total energy              =    -151.20560008 Ry
     estimated scf accuracy    <          7.5E-11 Ry

     convergence has been achieved in   4 iterations

     Using ACE for calculation of exact exchange
     ACE projected onto    16 (nbndproj) and applied to    16 (nbnd) bands

     total energy              =    -151.20560387 Ry
     Harris-Foulkes estimate   =    -151.20560387 Ry
     est. exchange err (dexx)  =       0.00000379 Ry
     - averaged Fock potential =      14.85696077 Ry
     + Fock energy (ACE)       =      -7.42906143 Ry

     EXX: now go back to refine exchange calculation

     total cpu time spent up to now is      707.4 secs

     Self-consistent Calculation

     iteration #  1     ecut=    60.00 Ry     beta= 0.70
     Davidson diagonalization with overlap

---- Real-time Memory Report at c_bands before calling an iterative solver
          1059 MiB given to the printing process from OS
             0 MiB allocation reported by mallinfo(arena+hblkhd)
          9634 MiB available memory on the node where the printing process lives
------------------
     ethr =  2.03E-10,  avg # of iterations =  3.1

     total cpu time spent up to now is      707.6 secs

     total energy              =    -151.20560439 Ry
     estimated scf accuracy    <       0.00000014 Ry

     iteration #  2     ecut=    60.00 Ry     beta= 0.70
     Davidson diagonalization with overlap

---- Real-time Memory Report at c_bands before calling an iterative solver
          1059 MiB given to the printing process from OS
             0 MiB allocation reported by mallinfo(arena+hblkhd)
          9626 MiB available memory on the node where the printing process lives
------------------
     ethr =  8.75E-10,  avg # of iterations =  2.0

     total cpu time spent up to now is      707.7 secs

     total energy              =    -151.20560442 Ry
     estimated scf accuracy    <       0.00000002 Ry

     iteration #  3     ecut=    60.00 Ry     beta= 0.70
     Davidson diagonalization with overlap

---- Real-time Memory Report at c_bands before calling an iterative solver
          1059 MiB given to the printing process from OS
             0 MiB allocation reported by mallinfo(arena+hblkhd)
          9625 MiB available memory on the node where the printing process lives
------------------
     ethr =  9.46E-11,  avg # of iterations =  2.0

     total cpu time spent up to now is      707.9 secs

     End of self-consistent calculation

          k = 0.0000 0.0000 0.0000 (  2421 PWs)   bands (ev):

  -108.9921 -63.1027 -63.1027 -63.1027  -7.4222   5.5524   5.5524   5.5524
     8.3481  10.8106  10.8106  10.8106  15.4086  15.6772  15.6772  18.0863

     occupation numbers 
     1.0000   1.0000   1.0000   1.0000   1.0000   1.0000   1.0000   1.0000
     0.0000   0.0000   0.0000   0.0000   0.0000   0.0000   0.0000   0.0000

          k =-0.1667 0.1667-0.1667 (  2397 PWs)   bands (ev):

  -108.9895 -63.1031 -63.1021 -63.1021  -7.1337   3.2996   5.2732   5.2732
     9.1812  11.2755  11.2755  11.6986  14.8229  14.8229  16.3315  17.6849

     occupation numbers 
     1.0000   1.0000   1.0000   1.0000   1.0000   1.0000   1.0000   1.0000
     0.0000   0.0000   0.0000   0.0000   0.0000   0.0000   0.0000   0.0000

          k =-0.3333 0.3333-0.3333 (  2424 PWs)   bands (ev):

  -108.9923 -63.1031 -63.1029 -63.1029  -6.3949   0.6766   4.8476   4.8476
     8.6824  11.3784  11.3784  14.0863  15.7221  15.7221  15.9557  20.9250

     occupation numbers 
     1.0000   1.0000   1.0000   1.0000   1.0000   1.0000   1.0000   1.0000
     0.0000   0.0000   0.0000   0.0000   0.0000   0.0000   0.0000   0.0000

          k = 0.5000-0.5000 0.5000 (  2392 PWs)   bands (ev):

  -108.9896 -63.1036 -63.1022 -63.1022  -5.8895  -0.5001   4.6723   4.6723
     8.4311  11.1665  11.1665  14.2527  17.9205  18.3973  18.3988  18.9799

     occupation numbers 
     1.0000   1.0000   1.0000   1.0000   1.0000   1.0000   1.0000   1.0000
     0.0000   0.0000   0.0000   0.0000   0.0000   0.0000   0.0000   0.0000

          k = 0.0000 0.3333 0.0000 (  2405 PWs)   bands (ev):

  -108.9893 -63.1034 -63.1018 -63.1018  -7.0361   3.3962   4.7187   4.7187
     9.6875  10.3474  12.2264  12.2264  13.4198  16.1991  17.3637  18.9735

     occupation numbers 
     1.0000   1.0000   1.0000   1.0000   1.0000   1.0000   1.0000   1.0000
     0.0000   0.0000   0.0000   0.0000   0.0000   0.0000   0.0000   0.0000

          k =-0.1667 0.5000-0.1667 (  2398 PWs)   bands (ev):

  -108.9897 -63.1032 -63.1024 -63.1022  -6.4345   1.3785   4.0278   4.2405
     9.4419  10.9985  12.0398  12.8376  15.4935  16.8891  17.7165  20.1792

     occupation numbers 
     1.0000   1.0000   1.0000   1.0000   1.0000   1.0000   1.0000   1.0000
     0.0000   0.0000   0.0000   0.0000   0.0000   0.0000   0.0000   0.0000

          k = 0.6667-0.3333 0.6667 (  2390 PWs)   bands (ev):

  -108.9891 -63.1036 -63.1021 -63.1020  -5.7725  -0.1717   3.2889   4.2023
     9.3097  11.2458  12.3410  13.7464  16.3441  18.2423  18.6556  19.6323

     occupation numbers 
     1.0000   1.0000   1.0000   1.0000   1.0000   1.0000   1.0000   1.0000
     0.0000   0.0000   0.0000   0.0000   0.0000   0.0000   0.0000   0.0000

          k = 0.5000-0.1667 0.5000 (  2407 PWs)   bands (ev):

  -108.9901 -63.1033 -63.1024 -63.1022  -5.9525   0.2110   3.0651   4.6131
     9.6624  11.3212  12.0041  14.0871  15.0775  16.7974  18.3841  20.2543

     occupation numbers 
     1.0000   1.0000   1.0000   1.0000   1.0000   1.0000   1.0000   1.0000
     0.0000   0.0000   0.0000   0.0000   0.0000   0.0000   0.0000   0.0000

          k = 0.3333 0.0000 0.3333 (  2403 PWs)   bands (ev):

  -108.9893 -63.1034 -63.1020 -63.1018  -6.6864   1.9686   3.7550   5.1879
    10.1175  11.2053  11.5724  12.4357  13.7810  16.2724  18.1821  18.5689

     occupation numbers 
     1.0000   1.0000   1.0000   1.0000   1.0000   1.0000   1.0000   1.0000
     0.0000   0.0000   0.0000   0.0000   0.0000   0.0000   0.0000   0.0000

          k = 0.0000 0.6667 0.0000 (  2397 PWs)   bands (ev):

  -108.9916 -63.1031 -63.1030 -63.1030  -6.0245   0.8776   3.6346   3.6346
     8.2776   9.3183  14.9441  14.9441  15.7249  17.7394  20.6044  21.2603

     occupation numbers 
     1.0000   1.0000   1.0000   1.0000   1.0000   1.0000   1.0000   1.0000
     0.0000   0.0000   0.0000   0.0000   0.0000   0.0000   0.0000   0.0000

          k = 0.8333-0.1667 0.8333 (  2398 PWs)   bands (ev):

  -108.9899 -63.1035 -63.1024 -63.1023  -5.4769  -0.0014   2.5584   3.5035
     8.3718  10.1010  14.6587  15.0453  17.5704  18.4872  20.1112  20.3381

     occupation numbers 
     1.0000   1.0000   1.0000   1.0000   1.0000   1.0000   1.0000   1.0000
     0.0000   0.0000   0.0000   0.0000   0.0000   0.0000   0.0000   0.0000

          k = 0.6667-0.0000 0.6667 (  2381 PWs)   bands (ev):

  -108.9910 -63.1032 -63.1031 -63.1030  -5.4326   0.0332   1.7679   3.9118
     8.9062  12.8645  13.9985  14.2984  14.6393  15.5642  21.1053  21.5660

     occupation numbers 
     1.0000   1.0000   1.0000   1.0000   1.0000   1.0000   1.0000   1.0000
     0.0000   0.0000   0.0000   0.0000   0.0000   0.0000   0.0000   0.0000

          k = 0.0000-1.0000 0.0000 (  2402 PWs)   bands (ev):

  -108.9894 -63.1038 -63.1021 -63.1021  -5.2890  -0.3796   3.2217   3.2217
     7.6835   8.5641  17.2461  17.2461  18.6014  19.5403  19.5403  19.9662

     occupation numbers 
     1.0000   1.0000   1.0000   1.0000   1.0000   1.0000   1.0000   1.0000
     0.0000   0.0000   0.0000   0.0000   0.0000   0.0000   0.0000   0.0000

          k = 0.6667-0.3333 1.0000 (  2399 PWs)   bands (ev):

  -108.9894 -63.1036 -63.1021 -63.1021  -5.8286   0.4973   2.6322   3.7930
    10.0512  11.0118  11.6461  14.6535  15.9706  17.5441  19.8323  20.8880

     occupation numbers 
     1.0000   1.0000   1.0000   1.0000   1.0000   1.0000   1.0000   1.0000
     0.0000   0.0000   0.0000   0.0000   0.0000   0.0000   0.0000   0.0000

          k = 0.5000-0.1667 0.8333 (  2396 PWs)   bands (ev):

  -108.9898 -63.1034 -63.1025 -63.1024  -5.4370  -0.0370   2.1419   3.3874
    10.3105  11.0629  13.3209  14.0280  15.0971  18.3011  19.7720  20.2912

     occupation numbers 
     1.0000   1.0000   1.0000   1.0000   1.0000   1.0000   1.0000   1.0000
     0.0000   0.0000   0.0000   0.0000   0.0000   0.0000   0.0000   0.0000

          k =-0.3333-1.0000 0.0000 (  2402 PWs)   bands (ev):

  -108.9895 -63.1037 -63.1022 -63.1021  -5.2633  -0.1249   2.3967   2.6823
     9.5117  10.5243  13.7762  14.4997  17.4550  19.3548  19.4293  20.8519

     occupation numbers 
     1.0000   1.0000   1.0000   1.0000   1.0000   1.0000   1.0000   1.0000
     0.0000   0.0000   0.0000   0.0000   0.0000   0.0000   0.0000   0.0000

     highest occupied, lowest unoccupied level (ev):     5.5524    7.6835

!    total energy              =    -151.20560442 Ry
     estimated scf accuracy    <          7.8E-10 Ry

     convergence has been achieved in   3 iterations

     Using ACE for calculation of exact exchange
     ACE projected onto    16 (nbndproj) and applied to    16 (nbnd) bands

     total energy              =    -151.20560451 Ry
     Harris-Foulkes estimate   =    -151.20560451 Ry
     est. exchange err (dexx)  =       0.00000009 Ry
     - averaged Fock potential =      14.85830003 Ry
     + Fock energy (ACE)       =      -7.42923869 Ry

     EXX: now go back to refine exchange calculation

     total cpu time spent up to now is      942.2 secs

     Self-consistent Calculation

     iteration #  1     ecut=    60.00 Ry     beta= 0.70
     Davidson diagonalization with overlap

---- Real-time Memory Report at c_bands before calling an iterative solver
          1059 MiB given to the printing process from OS
             0 MiB allocation reported by mallinfo(arena+hblkhd)
          9633 MiB available memory on the node where the printing process lives
------------------
     ethr =  9.46E-11,  avg # of iterations =  2.2

     total cpu time spent up to now is      942.4 secs

     End of self-consistent calculation

          k = 0.0000 0.0000 0.0000 (  2421 PWs)   bands (ev):

  -108.9922 -63.1031 -63.1031 -63.1031  -7.4222   5.5521   5.5521   5.5521
     8.3486  10.8107  10.8107  10.8107  15.4088  15.6771  15.6771  18.0864

     occupation numbers 
     1.0000   1.0000   1.0000   1.0000   1.0000   1.0000   1.0000   1.0000
     0.0000   0.0000   0.0000   0.0000   0.0000   0.0000   0.0000   0.0000

          k =-0.1667 0.1667-0.1667 (  2397 PWs)   bands (ev):

  -108.9896 -63.1036 -63.1025 -63.1025  -7.1337   3.2995   5.2728   5.2728
     9.1816  11.2756  11.2756  11.6987  14.8229  14.8229  16.3317  17.6850

     occupation numbers 
     1.0000   1.0000   1.0000   1.0000   1.0000   1.0000   1.0000   1.0000
     0.0000   0.0000   0.0000   0.0000   0.0000   0.0000   0.0000   0.0000

          k =-0.3333 0.3333-0.3333 (  2424 PWs)   bands (ev):

  -108.9924 -63.1036 -63.1033 -63.1033  -6.3950   0.6766   4.8473   4.8473
     8.6828  11.3785  11.3785  14.0864  15.7221  15.7221  15.9558  20.9250

     occupation numbers 
     1.0000   1.0000   1.0000   1.0000   1.0000   1.0000   1.0000   1.0000
     0.0000   0.0000   0.0000   0.0000   0.0000   0.0000   0.0000   0.0000

          k = 0.5000-0.5000 0.5000 (  2392 PWs)   bands (ev):

  -108.9897 -63.1040 -63.1026 -63.1026  -5.8895  -0.5001   4.6720   4.6720
     8.4315  11.1666  11.1666  14.2529  17.9206  18.3974  18.3983  18.9799

     occupation numbers 
     1.0000   1.0000   1.0000   1.0000   1.0000   1.0000   1.0000   1.0000
     0.0000   0.0000   0.0000   0.0000   0.0000   0.0000   0.0000   0.0000

          k = 0.0000 0.3333 0.0000 (  2405 PWs)   bands (ev):

  -108.9894 -63.1038 -63.1023 -63.1023  -7.0361   3.3961   4.7185   4.7185
     9.6877  10.3477  12.2265  12.2265  13.4199  16.1991  17.3638  18.9737

     occupation numbers 
     1.0000   1.0000   1.0000   1.0000   1.0000   1.0000   1.0000   1.0000
     0.0000   0.0000   0.0000   0.0000   0.0000   0.0000   0.0000   0.0000

          k =-0.1667 0.5000-0.1667 (  2398 PWs)   bands (ev):

  -108.9898 -63.1036 -63.1028 -63.1026  -6.4345   1.3785   4.0276   4.2402
     9.4421  10.9987  12.0398  12.8377  15.4935  16.8890  17.7166  20.1793

     occupation numbers 
     1.0000   1.0000   1.0000   1.0000   1.0000   1.0000   1.0000   1.0000
     0.0000   0.0000   0.0000   0.0000   0.0000   0.0000   0.0000   0.0000

          k = 0.6667-0.3333 0.6667 (  2390 PWs)   bands (ev):

  -108.9892 -63.1041 -63.1026 -63.1024  -5.7725  -0.1717   3.2888   4.2021
     9.3099  11.2459  12.3410  13.7464  16.3442  18.2424  18.6557  19.6322

     occupation numbers 
     1.0000   1.0000   1.0000   1.0000   1.0000   1.0000   1.0000   1.0000
     0.0000   0.0000   0.0000   0.0000   0.0000   0.0000   0.0000   0.0000

          k = 0.5000-0.1667 0.5000 (  2407 PWs)   bands (ev):

  -108.9902 -63.1038 -63.1029 -63.1027  -5.9526   0.2111   3.0649   4.6128
     9.6627  11.3213  12.0042  14.0872  15.0775  16.7975  18.3842  20.2543

     occupation numbers 
     1.0000   1.0000   1.0000   1.0000   1.0000   1.0000   1.0000   1.0000
     0.0000   0.0000   0.0000   0.0000   0.0000   0.0000   0.0000   0.0000

          k = 0.3333 0.0000 0.3333 (  2403 PWs)   bands (ev):

  -108.9894 -63.1039 -63.1025 -63.1023  -6.6864   1.9685   3.7548   5.1876
    10.1178  11.2053  11.5725  12.4358  13.7810  16.2724  18.1823  18.5690

     occupation numbers 
     1.0000   1.0000   1.0000   1.0000   1.0000   1.0000   1.0000   1.0000
     0.0000   0.0000   0.0000   0.0000   0.0000   0.0000   0.0000   0.0000

          k = 0.0000 0.6667 0.0000 (  2397 PWs)   bands (ev):

  -108.9917 -63.1035 -63.1034 -63.1034  -6.0245   0.8776   3.6344   3.6344
     8.2778   9.3185  14.9441  14.9441  15.7250  17.7394  20.6045  21.2604

     occupation numbers 
     1.0000   1.0000   1.0000   1.0000   1.0000   1.0000   1.0000   1.0000
     0.0000   0.0000   0.0000   0.0000   0.0000   0.0000   0.0000   0.0000

          k = 0.8333-0.1667 0.8333 (  2398 PWs)   bands (ev):

  -108.9900 -63.1039 -63.1029 -63.1028  -5.4769  -0.0013   2.5583   3.5033
     8.3720  10.1012  14.6588  15.0454  17.5705  18.4873  20.1112  20.3380

     occupation numbers 
     1.0000   1.0000   1.0000   1.0000   1.0000   1.0000   1.0000   1.0000
     0.0000   0.0000   0.0000   0.0000   0.0000   0.0000   0.0000   0.0000

          k = 0.6667-0.0000 0.6667 (  2381 PWs)   bands (ev):

  -108.9911 -63.1036 -63.1036 -63.1034  -5.4326   0.0333   1.7678   3.9115
     8.9065  12.8645  13.9986  14.2985  14.6395  15.5641  21.1053  21.5657

     occupation numbers 
     1.0000   1.0000   1.0000   1.0000   1.0000   1.0000   1.0000   1.0000
     0.0000   0.0000   0.0000   0.0000   0.0000   0.0000   0.0000   0.0000

          k = 0.0000-1.0000 0.0000 (  2402 PWs)   bands (ev):

  -108.9895 -63.1042 -63.1026 -63.1026  -5.2891  -0.3795   3.2215   3.2215
     7.6837   8.5644  17.2463  17.2463  18.6015  19.5402  19.5402  19.9662

     occupation numbers 
     1.0000   1.0000   1.0000   1.0000   1.0000   1.0000   1.0000   1.0000
     0.0000   0.0000   0.0000   0.0000   0.0000   0.0000   0.0000   0.0000

          k = 0.6667-0.3333 1.0000 (  2399 PWs)   bands (ev):

  -108.9895 -63.1040 -63.1026 -63.1025  -5.8287   0.4973   2.6321   3.7928
    10.0513  11.0120  11.6461  14.6536  15.9706  17.5442  19.8323  20.8842

     occupation numbers 
     1.0000   1.0000   1.0000   1.0000   1.0000   1.0000   1.0000   1.0000
     0.0000   0.0000   0.0000   0.0000   0.0000   0.0000   0.0000   0.0000

          k = 0.5000-0.1667 0.8333 (  2396 PWs)   bands (ev):

  -108.9899 -63.1038 -63.1029 -63.1028  -5.4371  -0.0370   2.1418   3.3872
    10.3106  11.0631  13.3210  14.0280  15.0971  18.3011  19.7720  20.2912

     occupation numbers 
     1.0000   1.0000   1.0000   1.0000   1.0000   1.0000   1.0000   1.0000
     0.0000   0.0000   0.0000   0.0000   0.0000   0.0000   0.0000   0.0000

          k =-0.3333-1.0000 0.0000 (  2402 PWs)   bands (ev):

  -108.9896 -63.1041 -63.1027 -63.1025  -5.2634  -0.1248   2.3965   2.6822
     9.5118  10.5244  13.7763  14.4997  17.4551  19.3548  19.4294  20.8519

     occupation numbers 
     1.0000   1.0000   1.0000   1.0000   1.0000   1.0000   1.0000   1.0000
     0.0000   0.0000   0.0000   0.0000   0.0000   0.0000   0.0000   0.0000

     highest occupied, lowest unoccupied level (ev):     5.5521    7.6837

!    total energy              =    -151.20560452 Ry
     estimated scf accuracy    <          2.5E-09 Ry

     convergence has been achieved in   1 iterations

     Using ACE for calculation of exact exchange
     ACE projected onto    16 (nbndproj) and applied to    16 (nbnd) bands

!!   total energy              =    -151.20560452 Ry
     Harris-Foulkes estimate   =    -151.20560452 Ry
     est. exchange err (dexx)  =          2.6E-09 Ry
     - averaged Fock potential =      14.85850852 Ry
     + Fock energy (ACE)       =      -7.42926983 Ry

     EXX self-consistency reached

     Writing all to output data dir ./out_fg/alasfg.save/ :
     XML data file, charge density, pseudopotentials, collected wavefunctions

     init_run     :      0.23s CPU      0.25s WALL (       1 calls)
     electrons    :      2.83s CPU      3.02s WALL (       5 calls)

     Called by init_run:
     aceinit0     :      0.00s CPU      0.00s WALL (       1 calls)
     wfcinit      :      0.03s CPU      0.05s WALL (       1 calls)
     wfcinit:wfcr :      0.03s CPU      0.04s WALL (      16 calls)
     potinit      :      0.01s CPU      0.01s WALL (       1 calls)
     hinit0       :      0.18s CPU      0.18s WALL (       1 calls)

     Called by electrons:
     c_bands      :      2.32s CPU      2.47s WALL (      19 calls)
     sum_band     :      0.38s CPU      0.40s WALL (      19 calls)
     v_of_rho     :      0.13s CPU      0.14s WALL (      20 calls)
     v_h          :      0.00s CPU      0.00s WALL (      20 calls)
     v_xc         :      0.13s CPU      0.14s WALL (      20 calls)
     mix_rho      :      0.00s CPU      0.00s WALL (      19 calls)

     Called by c_bands:
     init_us_2    :      0.06s CPU      0.06s WALL (     624 calls)
     cegterg      :      2.22s CPU      2.37s WALL (     304 calls)

     Called by sum_band:
     sum_band:wei :      0.00s CPU      0.00s WALL (      19 calls)
     sum_band:loo :      0.37s CPU      0.39s WALL (      19 calls)
     sum_band:buf :      0.00s CPU      0.00s WALL (     304 calls)
     sum_band:ini :      0.03s CPU      0.03s WALL (     304 calls)

     Called by *egterg:
     cdiaghg      :      0.15s CPU      0.15s WALL (    1065 calls)
     cegterg:over :      0.07s CPU      0.08s WALL (     841 calls)
     cegterg:upda :      0.03s CPU      0.03s WALL (     841 calls)
     cegterg:last :      0.05s CPU      0.05s WALL (     696 calls)
     h_psi        :      1.88s CPU      2.02s WALL (    1161 calls)
     g_psi        :      0.02s CPU      0.02s WALL (     841 calls)

     Called by h_psi:
     h_psi:calbec :      0.06s CPU      0.06s WALL (    1161 calls)
     vloc_psi     :      1.74s CPU      1.87s WALL (    1161 calls)
                                        0.00s GPU  (    1161 calls)
     add_vuspsi   :      0.03s CPU      0.04s WALL (    1161 calls)

     General routines
     calbec       :      0.10s CPU      0.11s WALL (    2195 calls)
     fft          :      0.19s CPU      0.19s WALL (     194 calls)
     ffts         :      0.00s CPU      0.00s WALL (      19 calls)
     fftw         :      1.86s CPU      2.00s WALL (   31320 calls)
     fftc         :    780.22s CPU    870.91s WALL ( 8847360 calls)
     fftcw        :      0.23s CPU      0.31s WALL (    3840 calls)

     Parallel routines

     EXX routines
     exx_grid     :      0.00s CPU      0.00s WALL (       1 calls)
     exxinit      :      3.39s CPU      4.58s WALL (       5 calls)
     vexx         :   1048.51s CPU   1169.56s WALL (      80 calls)
     matcalc      :      0.04s CPU      0.05s WALL (    1034 calls)
     aceupdate    :      0.00s CPU      0.00s WALL (      80 calls)
     vexxace      :      0.05s CPU      0.06s WALL (     810 calls)
     aceinit      :   1048.52s CPU   1169.58s WALL (      80 calls)

     PWSCF        :  17m35.01s CPU  19m37.54s WALL


   This run was terminated on:  10:56:19  25Jun2026            

=------------------------------------------------------------------------------=
   JOB DONE.
=------------------------------------------------------------------------------=
