
     Program PWSCF v.7.5 starts on 16Jun2026 at 15:50:36 

     This program is part of the open-source Quantum ESPRESSO suite
     for quantum simulation of materials; please cite
         "P. Giannozzi et al., J. Phys.:Condens. Matter 21 395502 (2009);
         "P. Giannozzi et al., J. Phys.:Condens. Matter 29 465901 (2017);
         "P. Giannozzi et al., J. Chem. Phys. 152 154105 (2020);
          URL http://www.quantum-espresso.org", 
     in publications or presentations arising from this work. More details at
     http://www.quantum-espresso.org/quote

     Serial multi-threaded version, running on    4 processor cores
     12992 MiB available memory on the printing compute node when the environment starts

     Reading input from lif.ddrshcam.in

     Current dimensions of program PWSCF are:
     Max number of different atomic species (ntypx) = 10
     Max number of k-points (npk) =  40000
     Max angular momentum in pseudopotentials (lmaxx) =  4

     IMPORTANT: XC functional enforced from input :
     Exchange-correlation= HSE
                           (   1   4  12   4   0   0   0)
     EXX-fraction              =        0.25
     Any further DFT definition will be discarded
     Please, verify this is what you really want

     EXX Screening parameter changed:    0.7250000
     EXX fraction changed:   1.00
     DD-RSH-CAM (LMODELHF) semilocal: AEXX, BEXX =   0.4899  1.0000
     DD-RSH-CAM (LMODELHF) enabled
     AEXX =  0.4899   BEXX =  1.0000   mu(bohr^-1) =  0.7250

     EXX: q-point mesh:     6    6    6
     EXX: setup a grid of 216 q-points centered on each k-point
     (k+q)-points:
   0.0000000   0.0000000   0.0000000         1    1
  -0.1666667   0.1666667  -0.1666667         2    1
  -0.3333333   0.3333333  -0.3333333         3    1
   0.5000000  -0.5000000   0.5000000         4    1
   0.3333333  -0.3333333   0.3333333         3   -1
   0.1666667  -0.1666667   0.1666667         2   -1
   0.1666667   0.1666667   0.1666667         2    3
   0.0000000   0.3333333   0.0000000         5    1
  -0.1666667   0.5000000  -0.1666667         6    1
   0.6666667  -0.3333333   0.6666667         7    1
   0.5000000  -0.1666667   0.5000000         8    1
   0.3333333   0.0000000   0.3333333         9    1
   0.3333333   0.3333333   0.3333333         3    3
   0.1666667   0.5000000   0.1666667         6    3
   0.0000000   0.6666667   0.0000000        10    1
   0.8333333  -0.1666667   0.8333333        11    1
   0.6666667   0.0000000   0.6666667        12    1
   0.5000000   0.1666667   0.5000000         8   -3
  -0.5000000  -0.5000000  -0.5000000         4    3
  -0.6666667  -0.3333333  -0.6666667         7    3
  -0.8333333  -0.1666667  -0.8333333        11    3
   0.0000000  -1.0000000   0.0000000        13    1
   0.8333333   0.1666667   0.8333333        11   -3
   0.6666667   0.3333333   0.6666667         7   -3
  -0.3333333  -0.3333333  -0.3333333         3   -3
  -0.5000000  -0.1666667  -0.5000000         8    3
  -0.6666667   0.0000000  -0.6666667        12   -1
  -0.8333333   0.1666667  -0.8333333        11   -1
   0.0000000  -0.6666667   0.0000000        10   -1
  -0.1666667  -0.5000000  -0.1666667         6   -3
  -0.1666667  -0.1666667  -0.1666667         2   -3
  -0.3333333   0.0000000  -0.3333333         9   -1
  -0.5000000   0.1666667  -0.5000000         8   -1
  -0.6666667   0.3333333  -0.6666667         7   -1
   0.1666667  -0.5000000   0.1666667         6   -1
   0.0000000  -0.3333333   0.0000000         5   -1
  -0.1666667  -0.1666667   0.1666667         2    4
  -0.3333333   0.0000000   0.0000000         5   -5
  -0.5000000   0.1666667  -0.1666667         6   -5
   0.3333333  -0.6666667   0.6666667         7   -5
   0.1666667  -0.5000000   0.5000000         8   -5
   0.0000000  -0.3333333   0.3333333         9   -5
   0.0000000   0.0000000   0.3333333         5   13
  -0.1666667   0.1666667   0.1666667         2   -2
  -0.3333333   0.3333333   0.0000000         9   13
  -0.5000000   0.5000000  -0.1666667         8   13
  -0.6666667   0.6666667  -0.3333333         7   13
   0.1666667  -0.1666667   0.5000000         6   13
   0.1666667   0.1666667   0.5000000         6  -16
   0.0000000   0.3333333   0.3333333         9   -6
  -0.1666667   0.5000000   0.1666667         6   -2
   0.6666667  -0.3333333   1.0000000        14    1
   0.5000000  -0.1666667   0.8333333        15    1
  -0.6666667   1.0000000  -0.3333333        14   13
  -0.6666667  -0.6666667  -0.3333333         7  -16
   0.1666667   0.5000000   0.5000000         8    7
  -1.0000000  -0.3333333  -0.6666667        14   -9
   0.8333333  -0.1666667  -0.8333333        11   -2
  -0.3333333  -1.0000000   0.0000000        16    1
   0.5000000   0.1666667   0.8333333        15   -3
  -0.5000000  -0.5000000  -0.1666667         8  -16
   0.3333333   0.6666667   0.6666667         7    7
  -0.8333333  -0.1666667  -0.5000000        15   -9
   0.0000000  -1.0000000   0.3333333        16   -9
   0.8333333   0.1666667  -0.8333333        11    4
   0.6666667   0.3333333   1.0000000        14   -3
  -0.3333333  -0.3333333   0.0000000         9   14
  -0.5000000  -0.1666667  -0.1666667         6    7
   0.3333333  -1.0000000   0.6666667        14   22
  -0.8333333   0.1666667  -0.5000000        15   10
  -1.0000000   0.3333333  -0.6666667        14   10
  -0.1666667  -0.5000000   0.1666667         6    4
  -0.3333333  -0.3333333   0.3333333         3    4
  -0.5000000  -0.1666667   0.1666667         6   -8
  -0.6666667   0.0000000   0.0000000        10   -5
   0.1666667  -0.8333333   0.8333333        11   -5
   0.0000000  -0.6666667   0.6666667        12   -5
  -0.1666667  -0.5000000   0.5000000         8    8
  -0.1666667  -0.1666667   0.5000000         6  -14
  -0.3333333   0.0000000   0.3333333         9    2
  -0.5000000   0.1666667   0.1666667         6    6
   0.3333333  -0.6666667   1.0000000        14   -5
   0.1666667  -0.5000000   0.8333333        15   -5
   1.0000000   0.6666667  -0.3333333        14   17
   0.0000000   0.0000000   0.6666667        10   13
  -0.1666667   0.1666667   0.5000000         6   15
  -0.3333333   0.3333333   0.3333333         3   -2
  -0.5000000   0.5000000   0.1666667         8  -15
  -0.6666667   0.6666667   0.0000000        12   13
  -0.8333333   0.8333333  -0.1666667        11   13
  -0.8333333  -0.8333333  -0.1666667        11  -16
  -1.0000000  -0.6666667  -0.3333333        14   18
  -0.1666667   0.5000000   0.5000000         8   -6
   0.6666667  -0.3333333  -0.6666667         7   -2
   0.5000000  -0.1666667  -0.8333333        15   -2
   0.3333333   0.0000000  -1.0000000        16   13
  -0.6666667  -0.6666667   0.0000000        12   14
   0.1666667   0.5000000   0.8333333        15    7
   0.0000000   0.6666667   0.6666667        12   -6
   0.8333333  -0.1666667  -0.5000000        15   12
   0.6666667   0.0000000  -0.6666667        12   -2
   0.5000000   0.1666667  -0.8333333        15    4
  -0.5000000  -0.5000000   0.1666667         8   14
   0.3333333   0.6666667   1.0000000        14    7
   0.1666667   0.8333333   0.8333333        11    7
  -1.0000000   0.0000000  -0.3333333        16   21
   0.8333333   0.1666667  -0.5000000        15  -11
   0.6666667   0.3333333  -0.6666667         7    4
   0.5000000   0.5000000  -0.5000000         4    4
   0.3333333   0.6666667  -0.6666667         7   -8
   0.1666667   0.8333333  -0.8333333        11   -8
  -1.0000000   0.0000000   0.0000000        13    5
  -0.1666667  -0.8333333   0.8333333        11    8
  -0.3333333  -0.6666667   0.6666667         7    8
   0.6666667   0.6666667  -0.3333333         7  -14
  -0.5000000  -0.1666667   0.5000000         8   -4
   0.3333333  -1.0000000  -0.6666667        14  -21
   0.1666667  -0.8333333  -0.8333333        11    6
   1.0000000   0.3333333   0.0000000        16   -5
  -0.1666667  -0.5000000   0.8333333        15    8
   0.8333333   0.8333333  -0.1666667        11  -14
   0.6666667   1.0000000  -0.3333333        14  -14
  -0.5000000   0.1666667   0.5000000         8    2
   0.3333333  -0.6666667  -0.6666667         7    6
   0.1666667  -0.5000000  -0.8333333        15    6
   0.0000000  -0.3333333  -1.0000000        16   17
   0.0000000   0.0000000  -1.0000000        13   13
   0.8333333  -0.8333333  -0.1666667        11   15
   0.6666667  -0.6666667  -0.3333333         7   15
  -0.5000000   0.5000000   0.5000000         4    2
  -0.6666667   0.6666667   0.3333333         7  -15
  -0.8333333   0.8333333   0.1666667        11  -15
  -0.8333333  -0.8333333   0.1666667        11   14
   0.0000000   0.3333333   1.0000000        16  -17
  -0.1666667   0.5000000   0.8333333        15   -6
  -0.3333333   0.6666667   0.6666667         7   -6
   0.5000000  -0.1666667  -0.5000000         8   -2
  -0.6666667  -1.0000000   0.3333333        14   14
  -0.6666667  -0.6666667   0.3333333         7   14
   0.1666667   0.5000000  -0.8333333        15   -8
  -1.0000000  -0.3333333   0.0000000        16    5
  -0.1666667   0.8333333   0.8333333        11   -6
  -0.3333333   1.0000000   0.6666667        14   21
   0.5000000   0.1666667  -0.5000000         8    4
   0.3333333   0.3333333  -0.3333333         3   -4
   0.1666667   0.5000000  -0.5000000         8   -8
   0.0000000   0.6666667  -0.6666667        12    5
  -0.1666667   0.8333333  -0.8333333        11    5
   0.6666667   0.0000000   0.0000000        10    5
   0.5000000   0.1666667  -0.1666667         6    8
   0.5000000   0.5000000  -0.1666667         8  -14
  -0.6666667  -0.3333333   0.6666667         7   -4
  -0.8333333  -0.1666667   0.5000000        15   11
   1.0000000   0.0000000   0.3333333        16  -21
  -0.1666667  -0.8333333  -0.8333333        11   -7
  -0.3333333  -0.6666667  -1.0000000        14   -7
   0.6666667   0.6666667   0.0000000        12  -14
  -0.5000000  -0.1666667   0.8333333        15   -4
  -0.6666667   0.0000000   0.6666667        12    2
  -0.8333333   0.1666667   0.5000000        15  -12
   0.0000000  -0.6666667  -0.6666667        12    6
  -0.1666667  -0.5000000  -0.8333333        15   -7
   0.8333333   0.8333333   0.1666667        11   16
  -0.3333333   0.0000000   1.0000000        16  -13
  -0.5000000   0.1666667   0.8333333        15    2
  -0.6666667   0.3333333   0.6666667         7    2
   0.1666667  -0.5000000  -0.5000000         8    6
   1.0000000   0.6666667   0.3333333        14  -18
   0.0000000   0.0000000  -0.6666667        10  -13
   0.8333333  -0.8333333   0.1666667        11  -13
   0.6666667  -0.6666667   0.0000000        12  -13
   0.5000000  -0.5000000  -0.1666667         8   15
   0.3333333  -0.3333333  -0.3333333         3    2
   0.1666667  -0.1666667  -0.5000000         6  -15
   0.1666667   0.1666667  -0.5000000         6   14
  -1.0000000  -0.6666667   0.3333333        14  -17
  -0.1666667   0.5000000  -0.8333333        15    5
  -0.3333333   0.6666667  -1.0000000        14    5
   0.5000000  -0.1666667  -0.1666667         6   -6
   0.3333333   0.0000000  -0.3333333         9   -2
   0.1666667   0.1666667  -0.1666667         2   -4
   0.0000000   0.3333333  -0.3333333         9    5
  -0.1666667   0.5000000  -0.5000000         8    5
  -0.3333333   0.6666667  -0.6666667         7    5
   0.5000000  -0.1666667   0.1666667         6    5
   0.3333333   0.0000000   0.0000000         5    5
   0.3333333   0.3333333   0.0000000         9  -14
   0.1666667   0.5000000  -0.1666667         6   -4
   1.0000000  -0.3333333   0.6666667        14  -10
   0.8333333  -0.1666667   0.5000000        15  -10
  -0.3333333   1.0000000  -0.6666667        14  -22
   0.5000000   0.1666667   0.1666667         6   -7
   0.5000000   0.5000000   0.1666667         8   16
  -0.6666667  -0.3333333  -1.0000000        14    3
  -0.8333333  -0.1666667   0.8333333        11   -4
   0.0000000   1.0000000  -0.3333333        16    9
   0.8333333   0.1666667   0.5000000        15    9
  -0.3333333  -0.6666667  -0.6666667         7   -7
   0.6666667   0.6666667   0.3333333         7   16
  -0.5000000  -0.1666667  -0.8333333        15    3
   0.3333333   1.0000000   0.0000000        16   -1
  -0.8333333   0.1666667   0.8333333        11    2
   1.0000000   0.3333333   0.6666667        14    9
  -0.1666667  -0.5000000  -0.5000000         8   -7
  -0.1666667  -0.1666667  -0.5000000         6   16
   0.6666667  -1.0000000   0.3333333        14  -13
  -0.5000000   0.1666667  -0.8333333        15   -1
  -0.6666667   0.3333333  -1.0000000        14   -1
   0.1666667  -0.5000000  -0.1666667         6    2
   0.0000000  -0.3333333  -0.3333333         9    6
   0.0000000   0.0000000  -0.3333333         5  -13
  -0.1666667   0.1666667  -0.5000000         6  -13
   0.6666667  -0.6666667   0.3333333         7  -13
   0.5000000  -0.5000000   0.1666667         8  -13
   0.3333333  -0.3333333   0.0000000         9  -13
   0.1666667  -0.1666667  -0.1666667         2    2

     G-vector sticks info
     --------------------
     sticks:   dense  smooth     PW     G-vecs:    dense   smooth      PW
     Sum         649     649    199                10777    10777    1837

     Using Slab Decomposition



     bravais-lattice index     =            2
     lattice parameter (alat)  =       7.6050  a.u.
     unit-cell volume          =     109.9607 (a.u.)^3
     number of atoms/cell      =            2
     number of atomic types    =            2
     number of electrons       =        10.00
     number of Kohn-Sham states=           12
     kinetic-energy cutoff     =      80.0000  Ry
     charge density cutoff     =     320.0000  Ry
     cutoff for Fock operator  =     320.0000  Ry
     scf convergence threshold =      1.0E-08
     mixing beta               =       0.7000
     number of iterations used =            8  plain     mixing
     Exchange-correlation= HSE
                           (   1   4  12   4   0   0   0)
     EXX-fraction              =        1.00

     celldm(1)=   7.605000  celldm(2)=   0.000000  celldm(3)=   0.000000
     celldm(4)=   0.000000  celldm(5)=   0.000000  celldm(6)=   0.000000

     crystal axes: (cart. coord. in units of alat)
               a(1) = (  -0.500000   0.000000   0.500000 )  
               a(2) = (   0.000000   0.500000   0.500000 )  
               a(3) = (  -0.500000   0.500000   0.000000 )  

     reciprocal axes: (cart. coord. in units 2 pi/alat)
               b(1) = ( -1.000000 -1.000000  1.000000 )  
               b(2) = (  1.000000  1.000000  1.000000 )  
               b(3) = ( -1.000000  1.000000 -1.000000 )  


     PseudoPot. # 1 for Li read from file:
     ../../../../pseudos/Li_ONCV_PBE-1.2.upf
     MD5 check sum: c91dd4cee9943b136ac3b62641658f95
     Pseudo is Norm-conserving, Zval =  3.0
     Generated using ONCVPSP code by D. R. Hamann
     Using radial grid of  602 points,  4 beta functions with: 
                l(1) =   0
                l(2) =   0
                l(3) =   1
                l(4) =   1

     PseudoPot. # 2 for F  read from file:
     ../../../../pseudos/F_ONCV_PBE-1.2.upf
     MD5 check sum: 1d8275f47d602dd53cad6bcdc0eda7dc
     Pseudo is Norm-conserving, Zval =  7.0
     Generated using ONCVPSP code by D. R. Hamann
     Using radial grid of  602 points,  4 beta functions with: 
                l(1) =   0
                l(2) =   0
                l(3) =   1
                l(4) =   1

     atomic species   valence    mass     pseudopotential
     Li                3.00     6.94100     Li( 1.00)
     F                 7.00    18.99800     F ( 1.00)

     48 Sym. Ops., with inversion, found


                                    s                        frac. trans.

      isym =  1     identity                                     

 cryst.   s( 1) = (     1          0          0      )
                  (     0          1          0      )
                  (     0          0          1      )

 cart.    s( 1) = (  1.0000000  0.0000000  0.0000000 )
                  (  0.0000000  1.0000000  0.0000000 )
                  (  0.0000000  0.0000000  1.0000000 )


      isym =  2     180 deg rotation - cart. axis [0,0,1]        

 cryst.   s( 2) = (     0          1         -1      )
                  (     1          0         -1      )
                  (     0          0         -1      )

 cart.    s( 2) = ( -1.0000000  0.0000000  0.0000000 )
                  (  0.0000000 -1.0000000  0.0000000 )
                  (  0.0000000  0.0000000  1.0000000 )


      isym =  3     180 deg rotation - cart. axis [0,1,0]        

 cryst.   s( 3) = (    -1          0          0      )
                  (    -1          0          1      )
                  (    -1          1          0      )

 cart.    s( 3) = ( -1.0000000  0.0000000  0.0000000 )
                  (  0.0000000  1.0000000  0.0000000 )
                  (  0.0000000  0.0000000 -1.0000000 )


      isym =  4     180 deg rotation - cart. axis [1,0,0]        

 cryst.   s( 4) = (     0         -1          1      )
                  (     0         -1          0      )
                  (     1         -1          0      )

 cart.    s( 4) = (  1.0000000  0.0000000  0.0000000 )
                  (  0.0000000 -1.0000000  0.0000000 )
                  (  0.0000000  0.0000000 -1.0000000 )


      isym =  5     180 deg rotation - cart. axis [1,1,0]        

 cryst.   s( 5) = (     0         -1          0      )
                  (    -1          0          0      )
                  (     0          0         -1      )

 cart.    s( 5) = (  0.0000000  1.0000000  0.0000000 )
                  (  1.0000000  0.0000000  0.0000000 )
                  (  0.0000000  0.0000000 -1.0000000 )


      isym =  6     180 deg rotation - cart. axis [1,-1,0]       

 cryst.   s( 6) = (    -1          0          1      )
                  (     0         -1          1      )
                  (     0          0          1      )

 cart.    s( 6) = (  0.0000000 -1.0000000  0.0000000 )
                  ( -1.0000000  0.0000000  0.0000000 )
                  (  0.0000000  0.0000000 -1.0000000 )


      isym =  7      90 deg rotation - cart. axis [0,0,-1]       

 cryst.   s( 7) = (     0          1          0      )
                  (     0          1         -1      )
                  (    -1          1          0      )

 cart.    s( 7) = (  0.0000000  1.0000000  0.0000000 )
                  ( -1.0000000  0.0000000  0.0000000 )
                  (  0.0000000  0.0000000  1.0000000 )


      isym =  8      90 deg rotation - cart. axis [0,0,1]        

 cryst.   s( 8) = (     1          0         -1      )
                  (     1          0          0      )
                  (     1         -1          0      )

 cart.    s( 8) = (  0.0000000 -1.0000000  0.0000000 )
                  (  1.0000000  0.0000000  0.0000000 )
                  (  0.0000000  0.0000000  1.0000000 )


      isym =  9     180 deg rotation - cart. axis [1,0,1]        

 cryst.   s( 9) = (    -1          0          0      )
                  (     0          0         -1      )
                  (     0         -1          0      )

 cart.    s( 9) = (  0.0000000  0.0000000  1.0000000 )
                  (  0.0000000 -1.0000000  0.0000000 )
                  (  1.0000000  0.0000000  0.0000000 )


      isym = 10     180 deg rotation - cart. axis [-1,0,1]       

 cryst.   s(10) = (     1          0          0      )
                  (     1         -1          0      )
                  (     1          0         -1      )

 cart.    s(10) = (  0.0000000  0.0000000 -1.0000000 )
                  (  0.0000000 -1.0000000  0.0000000 )
                  ( -1.0000000  0.0000000  0.0000000 )


      isym = 11      90 deg rotation - cart. axis [0,1,0]        

 cryst.   s(11) = (     0          1         -1      )
                  (    -1          1          0      )
                  (     0          1          0      )

 cart.    s(11) = (  0.0000000  0.0000000  1.0000000 )
                  (  0.0000000  1.0000000  0.0000000 )
                  ( -1.0000000  0.0000000  0.0000000 )


      isym = 12      90 deg rotation - cart. axis [0,-1,0]       

 cryst.   s(12) = (     0         -1          1      )
                  (     0          0          1      )
                  (    -1          0          1      )

 cart.    s(12) = (  0.0000000  0.0000000 -1.0000000 )
                  (  0.0000000  1.0000000  0.0000000 )
                  (  1.0000000  0.0000000  0.0000000 )


      isym = 13     180 deg rotation - cart. axis [0,1,1]        

 cryst.   s(13) = (    -1          1          0      )
                  (     0          1          0      )
                  (     0          1         -1      )

 cart.    s(13) = ( -1.0000000  0.0000000  0.0000000 )
                  (  0.0000000  0.0000000  1.0000000 )
                  (  0.0000000  1.0000000  0.0000000 )


      isym = 14     180 deg rotation - cart. axis [0,1,-1]       

 cryst.   s(14) = (     0          0         -1      )
                  (     0         -1          0      )
                  (    -1          0          0      )

 cart.    s(14) = ( -1.0000000  0.0000000  0.0000000 )
                  (  0.0000000  0.0000000 -1.0000000 )
                  (  0.0000000 -1.0000000  0.0000000 )


      isym = 15      90 deg rotation - cart. axis [-1,0,0]       

 cryst.   s(15) = (     0          0          1      )
                  (    -1          0          1      )
                  (     0         -1          1      )

 cart.    s(15) = (  1.0000000  0.0000000  0.0000000 )
                  (  0.0000000  0.0000000  1.0000000 )
                  (  0.0000000 -1.0000000  0.0000000 )


      isym = 16      90 deg rotation - cart. axis [1,0,0]        

 cryst.   s(16) = (     1         -1          0      )
                  (     1          0         -1      )
                  (     1          0          0      )

 cart.    s(16) = (  1.0000000  0.0000000  0.0000000 )
                  (  0.0000000  0.0000000 -1.0000000 )
                  (  0.0000000  1.0000000  0.0000000 )


      isym = 17     120 deg rotation - cart. axis [-1,-1,-1]     

 cryst.   s(17) = (    -1          0          1      )
                  (    -1          1          0      )
                  (    -1          0          0      )

 cart.    s(17) = (  0.0000000  1.0000000  0.0000000 )
                  (  0.0000000  0.0000000  1.0000000 )
                  (  1.0000000  0.0000000  0.0000000 )


      isym = 18     120 deg rotation - cart. axis [-1,1,1]       

 cryst.   s(18) = (     0          1          0      )
                  (     0          0          1      )
                  (     1          0          0      )

 cart.    s(18) = (  0.0000000 -1.0000000  0.0000000 )
                  (  0.0000000  0.0000000  1.0000000 )
                  ( -1.0000000  0.0000000  0.0000000 )


      isym = 19     120 deg rotation - cart. axis [1,1,-1]       

 cryst.   s(19) = (     1          0         -1      )
                  (     0          0         -1      )
                  (     0          1         -1      )

 cart.    s(19) = (  0.0000000  1.0000000  0.0000000 )
                  (  0.0000000  0.0000000 -1.0000000 )
                  ( -1.0000000  0.0000000  0.0000000 )


      isym = 20     120 deg rotation - cart. axis [1,-1,1]       

 cryst.   s(20) = (     0         -1          0      )
                  (     1         -1          0      )
                  (     0         -1          1      )

 cart.    s(20) = (  0.0000000 -1.0000000  0.0000000 )
                  (  0.0000000  0.0000000 -1.0000000 )
                  (  1.0000000  0.0000000  0.0000000 )


      isym = 21     120 deg rotation - cart. axis [1,1,1]        

 cryst.   s(21) = (     0          0         -1      )
                  (     0          1         -1      )
                  (     1          0         -1      )

 cart.    s(21) = (  0.0000000  0.0000000  1.0000000 )
                  (  1.0000000  0.0000000  0.0000000 )
                  (  0.0000000  1.0000000  0.0000000 )


      isym = 22     120 deg rotation - cart. axis [-1,1,-1]      

 cryst.   s(22) = (    -1          1          0      )
                  (    -1          0          0      )
                  (    -1          0          1      )

 cart.    s(22) = (  0.0000000  0.0000000  1.0000000 )
                  ( -1.0000000  0.0000000  0.0000000 )
                  (  0.0000000 -1.0000000  0.0000000 )


      isym = 23     120 deg rotation - cart. axis [1,-1,-1]      

 cryst.   s(23) = (     0          0          1      )
                  (     1          0          0      )
                  (     0          1          0      )

 cart.    s(23) = (  0.0000000  0.0000000 -1.0000000 )
                  ( -1.0000000  0.0000000  0.0000000 )
                  (  0.0000000  1.0000000  0.0000000 )


      isym = 24     120 deg rotation - cart. axis [-1,-1,1]      

 cryst.   s(24) = (     1         -1          0      )
                  (     0         -1          1      )
                  (     0         -1          0      )

 cart.    s(24) = (  0.0000000  0.0000000 -1.0000000 )
                  (  1.0000000  0.0000000  0.0000000 )
                  (  0.0000000 -1.0000000  0.0000000 )


      isym = 25     inversion                                    

 cryst.   s(25) = (    -1          0          0      )
                  (     0         -1          0      )
                  (     0          0         -1      )

 cart.    s(25) = ( -1.0000000  0.0000000  0.0000000 )
                  (  0.0000000 -1.0000000  0.0000000 )
                  (  0.0000000  0.0000000 -1.0000000 )


      isym = 26     inv. 180 deg rotation - cart. axis [0,0,1]   

 cryst.   s(26) = (     0         -1          1      )
                  (    -1          0          1      )
                  (     0          0          1      )

 cart.    s(26) = (  1.0000000  0.0000000  0.0000000 )
                  (  0.0000000  1.0000000  0.0000000 )
                  (  0.0000000  0.0000000 -1.0000000 )


      isym = 27     inv. 180 deg rotation - cart. axis [0,1,0]   

 cryst.   s(27) = (     1          0          0      )
                  (     1          0         -1      )
                  (     1         -1          0      )

 cart.    s(27) = (  1.0000000  0.0000000  0.0000000 )
                  (  0.0000000 -1.0000000  0.0000000 )
                  (  0.0000000  0.0000000  1.0000000 )


      isym = 28     inv. 180 deg rotation - cart. axis [1,0,0]   

 cryst.   s(28) = (     0          1         -1      )
                  (     0          1          0      )
                  (    -1          1          0      )

 cart.    s(28) = ( -1.0000000  0.0000000  0.0000000 )
                  (  0.0000000  1.0000000  0.0000000 )
                  (  0.0000000  0.0000000  1.0000000 )


      isym = 29     inv. 180 deg rotation - cart. axis [1,1,0]   

 cryst.   s(29) = (     0          1          0      )
                  (     1          0          0      )
                  (     0          0          1      )

 cart.    s(29) = (  0.0000000 -1.0000000  0.0000000 )
                  ( -1.0000000  0.0000000  0.0000000 )
                  (  0.0000000  0.0000000  1.0000000 )


      isym = 30     inv. 180 deg rotation - cart. axis [1,-1,0]  

 cryst.   s(30) = (     1          0         -1      )
                  (     0          1         -1      )
                  (     0          0         -1      )

 cart.    s(30) = (  0.0000000  1.0000000  0.0000000 )
                  (  1.0000000  0.0000000  0.0000000 )
                  (  0.0000000  0.0000000  1.0000000 )


      isym = 31     inv.  90 deg rotation - cart. axis [0,0,-1]  

 cryst.   s(31) = (     0         -1          0      )
                  (     0         -1          1      )
                  (     1         -1          0      )

 cart.    s(31) = (  0.0000000 -1.0000000  0.0000000 )
                  (  1.0000000  0.0000000  0.0000000 )
                  (  0.0000000  0.0000000 -1.0000000 )


      isym = 32     inv.  90 deg rotation - cart. axis [0,0,1]   

 cryst.   s(32) = (    -1          0          1      )
                  (    -1          0          0      )
                  (    -1          1          0      )

 cart.    s(32) = (  0.0000000  1.0000000  0.0000000 )
                  ( -1.0000000  0.0000000  0.0000000 )
                  (  0.0000000  0.0000000 -1.0000000 )


      isym = 33     inv. 180 deg rotation - cart. axis [1,0,1]   

 cryst.   s(33) = (     1          0          0      )
                  (     0          0          1      )
                  (     0          1          0      )

 cart.    s(33) = (  0.0000000  0.0000000 -1.0000000 )
                  (  0.0000000  1.0000000  0.0000000 )
                  ( -1.0000000  0.0000000  0.0000000 )


      isym = 34     inv. 180 deg rotation - cart. axis [-1,0,1]  

 cryst.   s(34) = (    -1          0          0      )
                  (    -1          1          0      )
                  (    -1          0          1      )

 cart.    s(34) = (  0.0000000  0.0000000  1.0000000 )
                  (  0.0000000  1.0000000  0.0000000 )
                  (  1.0000000  0.0000000  0.0000000 )


      isym = 35     inv.  90 deg rotation - cart. axis [0,1,0]   

 cryst.   s(35) = (     0         -1          1      )
                  (     1         -1          0      )
                  (     0         -1          0      )

 cart.    s(35) = (  0.0000000  0.0000000 -1.0000000 )
                  (  0.0000000 -1.0000000  0.0000000 )
                  (  1.0000000  0.0000000  0.0000000 )


      isym = 36     inv.  90 deg rotation - cart. axis [0,-1,0]  

 cryst.   s(36) = (     0          1         -1      )
                  (     0          0         -1      )
                  (     1          0         -1      )

 cart.    s(36) = (  0.0000000  0.0000000  1.0000000 )
                  (  0.0000000 -1.0000000  0.0000000 )
                  ( -1.0000000  0.0000000  0.0000000 )


      isym = 37     inv. 180 deg rotation - cart. axis [0,1,1]   

 cryst.   s(37) = (     1         -1          0      )
                  (     0         -1          0      )
                  (     0         -1          1      )

 cart.    s(37) = (  1.0000000  0.0000000  0.0000000 )
                  (  0.0000000  0.0000000 -1.0000000 )
                  (  0.0000000 -1.0000000  0.0000000 )


      isym = 38     inv. 180 deg rotation - cart. axis [0,1,-1]  

 cryst.   s(38) = (     0          0          1      )
                  (     0          1          0      )
                  (     1          0          0      )

 cart.    s(38) = (  1.0000000  0.0000000  0.0000000 )
                  (  0.0000000  0.0000000  1.0000000 )
                  (  0.0000000  1.0000000  0.0000000 )


      isym = 39     inv.  90 deg rotation - cart. axis [-1,0,0]  

 cryst.   s(39) = (     0          0         -1      )
                  (     1          0         -1      )
                  (     0          1         -1      )

 cart.    s(39) = ( -1.0000000  0.0000000  0.0000000 )
                  (  0.0000000  0.0000000 -1.0000000 )
                  (  0.0000000  1.0000000  0.0000000 )


      isym = 40     inv.  90 deg rotation - cart. axis [1,0,0]   

 cryst.   s(40) = (    -1          1          0      )
                  (    -1          0          1      )
                  (    -1          0          0      )

 cart.    s(40) = ( -1.0000000  0.0000000  0.0000000 )
                  (  0.0000000  0.0000000  1.0000000 )
                  (  0.0000000 -1.0000000  0.0000000 )


      isym = 41     inv. 120 deg rotation - cart. axis [-1,-1,-1]

 cryst.   s(41) = (     1          0         -1      )
                  (     1         -1          0      )
                  (     1          0          0      )

 cart.    s(41) = (  0.0000000 -1.0000000  0.0000000 )
                  (  0.0000000  0.0000000 -1.0000000 )
                  ( -1.0000000  0.0000000  0.0000000 )


      isym = 42     inv. 120 deg rotation - cart. axis [-1,1,1]  

 cryst.   s(42) = (     0         -1          0      )
                  (     0          0         -1      )
                  (    -1          0          0      )

 cart.    s(42) = (  0.0000000  1.0000000  0.0000000 )
                  (  0.0000000  0.0000000 -1.0000000 )
                  (  1.0000000  0.0000000  0.0000000 )


      isym = 43     inv. 120 deg rotation - cart. axis [1,1,-1]  

 cryst.   s(43) = (    -1          0          1      )
                  (     0          0          1      )
                  (     0         -1          1      )

 cart.    s(43) = (  0.0000000 -1.0000000  0.0000000 )
                  (  0.0000000  0.0000000  1.0000000 )
                  (  1.0000000  0.0000000  0.0000000 )


      isym = 44     inv. 120 deg rotation - cart. axis [1,-1,1]  

 cryst.   s(44) = (     0          1          0      )
                  (    -1          1          0      )
                  (     0          1         -1      )

 cart.    s(44) = (  0.0000000  1.0000000  0.0000000 )
                  (  0.0000000  0.0000000  1.0000000 )
                  ( -1.0000000  0.0000000  0.0000000 )


      isym = 45     inv. 120 deg rotation - cart. axis [1,1,1]   

 cryst.   s(45) = (     0          0          1      )
                  (     0         -1          1      )
                  (    -1          0          1      )

 cart.    s(45) = (  0.0000000  0.0000000 -1.0000000 )
                  ( -1.0000000  0.0000000  0.0000000 )
                  (  0.0000000 -1.0000000  0.0000000 )


      isym = 46     inv. 120 deg rotation - cart. axis [-1,1,-1] 

 cryst.   s(46) = (     1         -1          0      )
                  (     1          0          0      )
                  (     1          0         -1      )

 cart.    s(46) = (  0.0000000  0.0000000 -1.0000000 )
                  (  1.0000000  0.0000000  0.0000000 )
                  (  0.0000000  1.0000000  0.0000000 )


      isym = 47     inv. 120 deg rotation - cart. axis [1,-1,-1] 

 cryst.   s(47) = (     0          0         -1      )
                  (    -1          0          0      )
                  (     0         -1          0      )

 cart.    s(47) = (  0.0000000  0.0000000  1.0000000 )
                  (  1.0000000  0.0000000  0.0000000 )
                  (  0.0000000 -1.0000000  0.0000000 )


      isym = 48     inv. 120 deg rotation - cart. axis [-1,-1,1] 

 cryst.   s(48) = (    -1          1          0      )
                  (     0          1         -1      )
                  (     0          1          0      )

 cart.    s(48) = (  0.0000000  0.0000000  1.0000000 )
                  ( -1.0000000  0.0000000  0.0000000 )
                  (  0.0000000  1.0000000  0.0000000 )


     point group O_h (m-3m) 
     there are 10 classes
     the character table:

       E     8C3   3C2   6C4   6C2'  i     8S6   3s_h  6S4   6s_d 
A_1g   1.00  1.00  1.00  1.00  1.00  1.00  1.00  1.00  1.00  1.00
A_2g   1.00  1.00  1.00 -1.00 -1.00  1.00  1.00  1.00 -1.00 -1.00
E_g    2.00 -1.00  2.00  0.00  0.00  2.00 -1.00  2.00  0.00  0.00
T_1g   3.00  0.00 -1.00  1.00 -1.00  3.00  0.00 -1.00  1.00 -1.00
T_2g   3.00  0.00 -1.00 -1.00  1.00  3.00  0.00 -1.00 -1.00  1.00
A_1u   1.00  1.00  1.00  1.00  1.00 -1.00 -1.00 -1.00 -1.00 -1.00
A_2u   1.00  1.00  1.00 -1.00 -1.00 -1.00 -1.00 -1.00  1.00  1.00
E_u    2.00 -1.00  2.00  0.00  0.00 -2.00  1.00 -2.00  0.00  0.00
T_1u   3.00  0.00 -1.00  1.00 -1.00 -3.00  0.00  1.00 -1.00  1.00
T_2u   3.00  0.00 -1.00 -1.00  1.00 -3.00  0.00  1.00  1.00 -1.00

     the symmetry operations in each class and the name of the first element:

     E        1
          identity                                               
     8C3     17   19   20   18   24   21   22   23
          120 deg rotation - cart. axis [-1,-1,-1]               
     3C2      2    4    3
          180 deg rotation - cart. axis [0,0,1]                  
     6C4      7    8   15   16   12   11
           90 deg rotation - cart. axis [0,0,-1]                 
     6C2'     5    6   14   13   10    9
          180 deg rotation - cart. axis [1,1,0]                  
     i       25
          inversion                                              
     8S6     41   43   44   42   48   45   46   47
          inv. 120 deg rotation - cart. axis [-1,-1,-1]          
     3s_h    26   28   27
          inv. 180 deg rotation - cart. axis [0,0,1]             
     6S4     31   32   39   40   36   35
          inv.  90 deg rotation - cart. axis [0,0,-1]            
     6s_d    29   30   38   37   34   33
          inv. 180 deg rotation - cart. axis [1,1,0]             

   Cartesian axes

     site n.     atom                  positions (alat units)
         1        Li     tau(   1) = (   0.0000000   0.0000000   0.0000000  )
         2        F      tau(   2) = (  -0.5000000   0.5000000   0.5000000  )

   Crystallographic axes

     site n.     atom                  positions (cryst. coord.)
         1        Li     tau(   1) = (  0.0000000  0.0000000  0.0000000  )
         2        F      tau(   2) = (  0.5000000  0.5000000  0.5000000  )

     number of k points=    16
                       cart. coord. in units 2pi/alat
        k(    1) = (   0.0000000   0.0000000   0.0000000), wk =   0.0092593
        k(    2) = (  -0.1666667   0.1666667  -0.1666667), wk =   0.0740741
        k(    3) = (  -0.3333333   0.3333333  -0.3333333), wk =   0.0740741
        k(    4) = (   0.5000000  -0.5000000   0.5000000), wk =   0.0370370
        k(    5) = (   0.0000000   0.3333333   0.0000000), wk =   0.0555556
        k(    6) = (  -0.1666667   0.5000000  -0.1666667), wk =   0.2222222
        k(    7) = (   0.6666667  -0.3333333   0.6666667), wk =   0.2222222
        k(    8) = (   0.5000000  -0.1666667   0.5000000), wk =   0.2222222
        k(    9) = (   0.3333333   0.0000000   0.3333333), wk =   0.1111111
        k(   10) = (   0.0000000   0.6666667   0.0000000), wk =   0.0555556
        k(   11) = (   0.8333333  -0.1666667   0.8333333), wk =   0.2222222
        k(   12) = (   0.6666667  -0.0000000   0.6666667), wk =   0.1111111
        k(   13) = (   0.0000000  -1.0000000   0.0000000), wk =   0.0277778
        k(   14) = (   0.6666667  -0.3333333   1.0000000), wk =   0.2222222
        k(   15) = (   0.5000000  -0.1666667   0.8333333), wk =   0.2222222
        k(   16) = (  -0.3333333  -1.0000000   0.0000000), wk =   0.1111111

                       cryst. coord.
        k(    1) = (   0.0000000   0.0000000   0.0000000), wk =   0.0092593
        k(    2) = (   0.0000000   0.0000000   0.1666667), wk =   0.0740741
        k(    3) = (   0.0000000   0.0000000   0.3333333), wk =   0.0740741
        k(    4) = (   0.0000000   0.0000000  -0.5000000), wk =   0.0370370
        k(    5) = (   0.0000000   0.1666667   0.1666667), wk =   0.0555556
        k(    6) = (   0.0000000   0.1666667   0.3333333), wk =   0.2222222
        k(    7) = (   0.0000000   0.1666667  -0.5000000), wk =   0.2222222
        k(    8) = (   0.0000000   0.1666667  -0.3333333), wk =   0.2222222
        k(    9) = (   0.0000000   0.1666667  -0.1666667), wk =   0.1111111
        k(   10) = (   0.0000000   0.3333333   0.3333333), wk =   0.0555556
        k(   11) = (   0.0000000   0.3333333  -0.5000000), wk =   0.2222222
        k(   12) = (   0.0000000   0.3333333  -0.3333333), wk =   0.1111111
        k(   13) = (   0.0000000  -0.5000000  -0.5000000), wk =   0.0277778
        k(   14) = (   0.1666667   0.3333333  -0.5000000), wk =   0.2222222
        k(   15) = (   0.1666667   0.3333333  -0.3333333), wk =   0.2222222
        k(   16) = (   0.1666667  -0.5000000  -0.3333333), wk =   0.1111111

     Dense  grid:    10777 G-vectors     FFT dimensions: (  32,  32,  32)

     Dynamical RAM for                 wfc:       0.24 MB

     Dynamical RAM for     wfc (w. buffer):       4.14 MB

     Dynamical RAM for                 EXX:     845.31 MB

     Dynamical RAM for           str. fact:       0.33 MB

     Dynamical RAM for           local pot:       0.00 MB

     Dynamical RAM for          nlocal pot:       0.32 MB

     Dynamical RAM for                qrad:       0.91 MB

     Dynamical RAM for          rho,v,vnew:       1.24 MB

     Dynamical RAM for               rhoin:       0.41 MB

     Dynamical RAM for            rho*nmix:       2.63 MB

     Dynamical RAM for           G-vectors:       0.70 MB

     Dynamical RAM for          h,s,v(r/c):       0.03 MB

     Dynamical RAM for          <psi|beta>:       0.00 MB

     Dynamical RAM for                 psi:       0.49 MB

     Dynamical RAM for                hpsi:       0.49 MB

     Dynamical RAM for      wfcinit/wfcrot:       0.49 MB

     Estimated static dynamical RAM per process >     855.12 MB

     Estimated max dynamical RAM per process >     858.75 MB
     EXX: ACE will be initialized later

     Initial potential from superposition of free atoms

     starting charge       9.8869, renormalised to      10.0000
     Starting wfcs are random

     total cpu time spent up to now is        0.4 secs

     Self-consistent Calculation

     iteration #  1     ecut=    80.00 Ry     beta= 0.70
     Davidson diagonalization with overlap

---- Real-time Memory Report at c_bands before calling an iterative solver
            30 MiB given to the printing process from OS
             0 MiB allocation reported by mallinfo(arena+hblkhd)
         12977 MiB available memory on the node where the printing process lives
------------------
     ethr =  1.00E-02,  avg # of iterations =  7.1

     Threshold (ethr) on eigenvalues was too large:
     Diagonalizing with lowered threshold

     Davidson diagonalization with overlap

---- Real-time Memory Report at c_bands before calling an iterative solver
            31 MiB given to the printing process from OS
             0 MiB allocation reported by mallinfo(arena+hblkhd)
         12976 MiB available memory on the node where the printing process lives
------------------
     ethr =  6.20E-04,  avg # of iterations =  1.2

     total cpu time spent up to now is        0.9 secs

     total energy              =     -62.26458051 Ry
     estimated scf accuracy    <       0.06470913 Ry

     iteration #  2     ecut=    80.00 Ry     beta= 0.70
     Davidson diagonalization with overlap

---- Real-time Memory Report at c_bands before calling an iterative solver
            34 MiB given to the printing process from OS
             0 MiB allocation reported by mallinfo(arena+hblkhd)
         12973 MiB available memory on the node where the printing process lives
------------------
     ethr =  6.47E-04,  avg # of iterations =  2.0

     total cpu time spent up to now is        1.0 secs

     total energy              =     -62.27996646 Ry
     estimated scf accuracy    <       0.03128176 Ry

     iteration #  3     ecut=    80.00 Ry     beta= 0.70
     Davidson diagonalization with overlap

---- Real-time Memory Report at c_bands before calling an iterative solver
            35 MiB given to the printing process from OS
             0 MiB allocation reported by mallinfo(arena+hblkhd)
         12972 MiB available memory on the node where the printing process lives
------------------
     ethr =  3.13E-04,  avg # of iterations =  1.6

     total cpu time spent up to now is        1.2 secs

     total energy              =     -62.28673999 Ry
     estimated scf accuracy    <       0.00048582 Ry

     iteration #  4     ecut=    80.00 Ry     beta= 0.70
     Davidson diagonalization with overlap

---- Real-time Memory Report at c_bands before calling an iterative solver
            35 MiB given to the printing process from OS
             0 MiB allocation reported by mallinfo(arena+hblkhd)
         12972 MiB available memory on the node where the printing process lives
------------------
     ethr =  4.86E-06,  avg # of iterations =  3.2

     total cpu time spent up to now is        1.3 secs

     total energy              =     -62.28684496 Ry
     estimated scf accuracy    <       0.00000551 Ry

     iteration #  5     ecut=    80.00 Ry     beta= 0.70
     Davidson diagonalization with overlap

---- Real-time Memory Report at c_bands before calling an iterative solver
            36 MiB given to the printing process from OS
             0 MiB allocation reported by mallinfo(arena+hblkhd)
         12972 MiB available memory on the node where the printing process lives
------------------
     ethr =  5.51E-08,  avg # of iterations =  2.0

     total cpu time spent up to now is        1.4 secs

     total energy              =     -62.28684631 Ry
     estimated scf accuracy    <       0.00000026 Ry

     iteration #  6     ecut=    80.00 Ry     beta= 0.70
     Davidson diagonalization with overlap

---- Real-time Memory Report at c_bands before calling an iterative solver
            36 MiB given to the printing process from OS
             0 MiB allocation reported by mallinfo(arena+hblkhd)
         12971 MiB available memory on the node where the printing process lives
------------------
     ethr =  2.58E-09,  avg # of iterations =  2.0

     total cpu time spent up to now is        1.6 secs

     End of self-consistent calculation

          k = 0.0000 0.0000 0.0000 (  1363 PWs)   bands (ev):

   -39.8835 -18.9249   0.9571   0.9571   0.9571  10.1085  24.9991  24.9991
    24.9991  25.4372  25.4372  25.4372

     occupation numbers 
     1.0000   1.0000   1.0000   1.0000   1.0000   0.0000   0.0000   0.0000
     0.0000   0.0000   0.0000   0.0000

          k =-0.1667 0.1667-0.1667 (  1330 PWs)   bands (ev):

   -39.8687 -18.8224   0.2383   0.8978   0.8978  10.8214  20.5940  22.7624
    22.7624  27.0812  27.3397  27.3397

     occupation numbers 
     1.0000   1.0000   1.0000   1.0000   1.0000   0.0000   0.0000   0.0000
     0.0000   0.0000   0.0000   0.0000

          k =-0.3333 0.3333-0.3333 (  1326 PWs)   bands (ev):

   -39.8392 -18.6058  -0.9953   0.7845   0.7845  11.7156  18.0945  20.7155
    20.7155  29.3679  30.1129  30.1129

     occupation numbers 
     1.0000   1.0000   1.0000   1.0000   1.0000   0.0000   0.0000   0.0000
     0.0000   0.0000   0.0000   0.0000

          k = 0.5000-0.5000 0.5000 (  1350 PWs)   bands (ev):

   -39.8245 -18.4912  -1.5491   0.7303   0.7303  11.8183  17.7365  19.9604
    19.9604  31.5775  32.0896  32.0896

     occupation numbers 
     1.0000   1.0000   1.0000   1.0000   1.0000   0.0000   0.0000   0.0000
     0.0000   0.0000   0.0000   0.0000

          k = 0.0000 0.3333 0.0000 (  1327 PWs)   bands (ev):

   -39.8641 -18.7815   0.2662   0.7017   0.7017  11.2087  21.5757  22.2701
    22.3130  22.3130  30.5826  30.5826

     occupation numbers 
     1.0000   1.0000   1.0000   1.0000   1.0000   0.0000   0.0000   0.0000
     0.0000   0.0000   0.0000   0.0000

          k =-0.1667 0.5000-0.1667 (  1330 PWs)   bands (ev):

   -39.8401 -18.5873  -0.7239   0.4813   0.5190  12.4092  18.3156  20.6791
    21.2184  24.4320  32.5762  32.7310

     occupation numbers 
     1.0000   1.0000   1.0000   1.0000   1.0000   0.0000   0.0000   0.0000
     0.0000   0.0000   0.0000   0.0000

          k = 0.6667-0.3333 0.6667 (  1336 PWs)   bands (ev):

   -39.8207 -18.4262  -1.4046   0.1494   0.5279  12.9179  17.1419  20.0479
    20.3115  27.5663  32.8857  33.2952

     occupation numbers 
     1.0000   1.0000   1.0000   1.0000   1.0000   0.0000   0.0000   0.0000
     0.0000   0.0000   0.0000   0.0000

          k = 0.5000-0.1667 0.5000 (  1338 PWs)   bands (ev):

   -39.8254 -18.4721  -1.1755   0.0220   0.7178  12.7452  17.0862  20.3739
    20.3932  30.0096  30.5164  30.8272

     occupation numbers 
     1.0000   1.0000   1.0000   1.0000   1.0000   0.0000   0.0000   0.0000
     0.0000   0.0000   0.0000   0.0000

          k = 0.3333 0.0000 0.3333 (  1341 PWs)   bands (ev):

   -39.8494 -18.6737  -0.3538   0.3623   0.9049  11.7839  18.5546  21.2088
    21.6065  27.4856  27.8749  31.0254

     occupation numbers 
     1.0000   1.0000   1.0000   1.0000   1.0000   0.0000   0.0000   0.0000
     0.0000   0.0000   0.0000   0.0000

          k = 0.0000 0.6667 0.0000 (  1331 PWs)   bands (ev):

   -39.8270 -18.4338  -1.2302   0.2056   0.2056  13.8439  18.5600  19.7212
    21.3580  21.3580  35.2672  36.4795

     occupation numbers 
     1.0000   1.0000   1.0000   1.0000   1.0000   0.0000   0.0000   0.0000
     0.0000   0.0000   0.0000   0.0000

          k = 0.8333-0.1667 0.8333 (  1325 PWs)   bands (ev):

   -39.8131 -18.2926  -1.6407  -0.2254   0.1458  15.0122  16.8860  19.2446
    20.9566  23.1453  34.7727  36.8063

     occupation numbers 
     1.0000   1.0000   1.0000   1.0000   1.0000   0.0000   0.0000   0.0000
     0.0000   0.0000   0.0000   0.0000

          k = 0.6667-0.0000 0.6667 (  1316 PWs)   bands (ev):

   -39.8123 -18.3126  -1.1766  -0.8198   0.3931  14.6459  16.0598  19.9222
    20.4782  26.4140  33.2738  33.6098

     occupation numbers 
     1.0000   1.0000   1.0000   1.0000   1.0000   0.0000   0.0000   0.0000
     0.0000   0.0000   0.0000   0.0000

          k = 0.0000-1.0000 0.0000 (  1338 PWs)   bands (ev):

   -39.8093 -18.2237  -2.0330  -0.0351  -0.0351  15.8071  17.5435  18.5099
    21.2549  21.2549  34.4444  39.4796

     occupation numbers 
     1.0000   1.0000   1.0000   1.0000   1.0000   0.0000   0.0000   0.0000
     0.0000   0.0000   0.0000   0.0000

          k = 0.6667-0.3333 1.0000 (  1329 PWs)   bands (ev):

   -39.8216 -18.4069  -1.1402  -0.2845   0.4418  13.8154  16.9421  19.9089
    20.6608  25.5725  31.8592  35.7145

     occupation numbers 
     1.0000   1.0000   1.0000   1.0000   1.0000   0.0000   0.0000   0.0000
     0.0000   0.0000   0.0000   0.0000

          k = 0.5000-0.1667 0.8333 (  1324 PWs)   bands (ev):

   -39.8123 -18.3126  -1.2450  -0.6985   0.3337  14.5687  16.3871  19.5968
    20.2722  28.3151  29.1235  36.4628

     occupation numbers 
     1.0000   1.0000   1.0000   1.0000   1.0000   0.0000   0.0000   0.0000
     0.0000   0.0000   0.0000   0.0000

          k =-0.3333-1.0000 0.0000 (  1324 PWs)   bands (ev):

   -39.8085 -18.2441  -1.5855  -0.5926   0.1143  15.8840  16.4618  18.4962
    20.5246  25.0135  32.7058  35.0091

     occupation numbers 
     1.0000   1.0000   1.0000   1.0000   1.0000   0.0000   0.0000   0.0000
     0.0000   0.0000   0.0000   0.0000

     highest occupied, lowest unoccupied level (ev):     0.9571   10.1085

!    total energy              =     -62.28684639 Ry
     estimated scf accuracy    <          2.0E-09 Ry

     convergence has been achieved in   6 iterations

     Using ACE for calculation of exact exchange

     EXX grid:    10777 G-vectors     FFT dimensions: (  32,  32,  32)
     ACE projected onto    12 (nbndproj) and applied to    12 (nbnd) bands

     EXX: now go back to refine exchange calculation

     total cpu time spent up to now is       66.7 secs

     Self-consistent Calculation

     iteration #  1     ecut=    80.00 Ry     beta= 0.70
     Davidson diagonalization with overlap

---- Real-time Memory Report at c_bands before calling an iterative solver
          1640 MiB given to the printing process from OS
             0 MiB allocation reported by mallinfo(arena+hblkhd)
         11375 MiB available memory on the node where the printing process lives
------------------
     ethr =  2.58E-09,  avg # of iterations =  6.0

     total cpu time spent up to now is       67.0 secs

     total energy              =     -62.31642414 Ry
     estimated scf accuracy    <       0.00298271 Ry

     iteration #  2     ecut=    80.00 Ry     beta= 0.70
     Davidson diagonalization with overlap

---- Real-time Memory Report at c_bands before calling an iterative solver
          1640 MiB given to the printing process from OS
             0 MiB allocation reported by mallinfo(arena+hblkhd)
         11374 MiB available memory on the node where the printing process lives
------------------
     ethr =  2.98E-05,  avg # of iterations =  1.9

     total cpu time spent up to now is       67.1 secs

     total energy              =     -62.31696585 Ry
     estimated scf accuracy    <       0.00053050 Ry

     iteration #  3     ecut=    80.00 Ry     beta= 0.70
     Davidson diagonalization with overlap

---- Real-time Memory Report at c_bands before calling an iterative solver
          1640 MiB given to the printing process from OS
             0 MiB allocation reported by mallinfo(arena+hblkhd)
         11374 MiB available memory on the node where the printing process lives
------------------
     ethr =  5.30E-06,  avg # of iterations =  2.0

     total cpu time spent up to now is       67.3 secs

     total energy              =     -62.31711053 Ry
     estimated scf accuracy    <       0.00003036 Ry

     iteration #  4     ecut=    80.00 Ry     beta= 0.70
     Davidson diagonalization with overlap

---- Real-time Memory Report at c_bands before calling an iterative solver
          1640 MiB given to the printing process from OS
             0 MiB allocation reported by mallinfo(arena+hblkhd)
         11373 MiB available memory on the node where the printing process lives
------------------
     ethr =  3.04E-07,  avg # of iterations =  1.0

     total cpu time spent up to now is       67.4 secs

     total energy              =     -62.31711513 Ry
     estimated scf accuracy    <       0.00000005 Ry

     iteration #  5     ecut=    80.00 Ry     beta= 0.70
     Davidson diagonalization with overlap

---- Real-time Memory Report at c_bands before calling an iterative solver
          1640 MiB given to the printing process from OS
             0 MiB allocation reported by mallinfo(arena+hblkhd)
         11373 MiB available memory on the node where the printing process lives
------------------
     ethr =  4.89E-10,  avg # of iterations =  2.0

     total cpu time spent up to now is       67.5 secs

     End of self-consistent calculation

          k = 0.0000 0.0000 0.0000 (  1363 PWs)   bands (ev):

   -49.9869 -29.5509  -4.0577  -4.0577  -4.0577  11.6370  27.6303  27.6303
    27.6303  27.9356  27.9356  27.9356

     occupation numbers 
     1.0000   1.0000   1.0000   1.0000   1.0000   0.0000   0.0000   0.0000
     0.0000   0.0000   0.0000   0.0000

          k =-0.1667 0.1667-0.1667 (  1330 PWs)   bands (ev):

   -49.9701 -29.4569  -4.8616  -4.1303  -4.1303  12.4557  22.8567  25.3283
    25.3283  29.6422  29.7377  29.7377

     occupation numbers 
     1.0000   1.0000   1.0000   1.0000   1.0000   0.0000   0.0000   0.0000
     0.0000   0.0000   0.0000   0.0000

          k =-0.3333 0.3333-0.3333 (  1326 PWs)   bands (ev):

   -49.9373 -29.2558  -6.2514  -4.2651  -4.2651  13.4373  20.5433  23.1216
    23.1216  31.9586  32.7688  32.7688

     occupation numbers 
     1.0000   1.0000   1.0000   1.0000   1.0000   0.0000   0.0000   0.0000
     0.0000   0.0000   0.0000   0.0000

          k = 0.5000-0.5000 0.5000 (  1350 PWs)   bands (ev):

   -49.9205 -29.1528  -6.8801  -4.3313  -4.3313  13.5008  20.4255  22.3051
    22.3051  34.1287  35.1838  35.1838

     occupation numbers 
     1.0000   1.0000   1.0000   1.0000   1.0000   0.0000   0.0000   0.0000
     0.0000   0.0000   0.0000   0.0000

          k = 0.0000 0.3333 0.0000 (  1327 PWs)   bands (ev):

   -49.9648 -29.4191  -4.8178  -4.3526  -4.3526  12.9051  23.4630  24.8004
    24.9581  24.9581  33.2486  33.2486

     occupation numbers 
     1.0000   1.0000   1.0000   1.0000   1.0000   0.0000   0.0000   0.0000
     0.0000   0.0000   0.0000   0.0000

          k =-0.1667 0.5000-0.1667 (  1330 PWs)   bands (ev):

   -49.9380 -29.2390  -5.9299  -4.5964  -4.5620  14.2783  20.4794  23.0986
    23.8396  26.9384  35.3582  35.3963

     occupation numbers 
     1.0000   1.0000   1.0000   1.0000   1.0000   0.0000   0.0000   0.0000
     0.0000   0.0000   0.0000   0.0000

          k = 0.6667-0.3333 0.6667 (  1336 PWs)   bands (ev):

   -49.9162 -29.0925  -6.7044  -4.9574  -4.5578  14.7559  19.5994  22.5292
    22.8079  30.1209  35.6288  36.3325

     occupation numbers 
     1.0000   1.0000   1.0000   1.0000   1.0000   0.0000   0.0000   0.0000
     0.0000   0.0000   0.0000   0.0000

          k = 0.5000-0.1667 0.5000 (  1338 PWs)   bands (ev):

   -49.9215 -29.1340  -6.4501  -5.1011  -4.3437  14.5895  19.4483  22.8133
    22.9802  32.7025  33.0363  33.5298

     occupation numbers 
     1.0000   1.0000   1.0000   1.0000   1.0000   0.0000   0.0000   0.0000
     0.0000   0.0000   0.0000   0.0000

          k = 0.3333 0.0000 0.3333 (  1341 PWs)   bands (ev):

   -49.9483 -29.3197  -5.5239  -4.7308  -4.1294  13.5615  20.7317  23.8173
    24.1004  29.7713  30.5065  33.7329

     occupation numbers 
     1.0000   1.0000   1.0000   1.0000   1.0000   0.0000   0.0000   0.0000
     0.0000   0.0000   0.0000   0.0000

          k = 0.0000 0.6667 0.0000 (  1331 PWs)   bands (ev):

   -49.9237 -29.0950  -6.4615  -4.9137  -4.9137  15.9927  20.2873  22.0773
    24.1927  24.1927  38.9234  39.3937

     occupation numbers 
     1.0000   1.0000   1.0000   1.0000   1.0000   0.0000   0.0000   0.0000
     0.0000   0.0000   0.0000   0.0000

          k = 0.8333-0.1667 0.8333 (  1325 PWs)   bands (ev):

   -49.9079 -28.9678  -6.9176  -5.3912  -4.9835  17.2675  18.9849  21.5975
    23.7561  25.7730  38.0680  39.8214

     occupation numbers 
     1.0000   1.0000   1.0000   1.0000   1.0000   0.0000   0.0000   0.0000
     0.0000   0.0000   0.0000   0.0000

          k = 0.6667-0.0000 0.6667 (  1316 PWs)   bands (ev):

   -49.9072 -28.9855  -6.4070  -6.0497  -4.7065  16.6664  18.4283  22.5205
    23.0979  28.8347  36.0347  36.1305

     occupation numbers 
     1.0000   1.0000   1.0000   1.0000   1.0000   0.0000   0.0000   0.0000
     0.0000   0.0000   0.0000   0.0000

          k = 0.0000-1.0000 0.0000 (  1338 PWs)   bands (ev):

   -49.9035 -28.9049  -7.3414  -5.1868  -5.1868  18.3574  19.2153  20.7610
    24.2039  24.2039  37.7770  42.6835

     occupation numbers 
     1.0000   1.0000   1.0000   1.0000   1.0000   0.0000   0.0000   0.0000
     0.0000   0.0000   0.0000   0.0000

          k = 0.6667-0.3333 1.0000 (  1329 PWs)   bands (ev):

   -49.9172 -29.0736  -6.3860  -5.4430  -4.6556  15.8842  19.0964  22.3304
    23.3786  28.1086  34.6312  38.4207

     occupation numbers 
     1.0000   1.0000   1.0000   1.0000   1.0000   0.0000   0.0000   0.0000
     0.0000   0.0000   0.0000   0.0000

          k = 0.5000-0.1667 0.8333 (  1324 PWs)   bands (ev):

   -49.9069 -28.9871  -6.5078  -5.8837  -4.7826  16.6286  18.7463  22.1097
    22.8722  30.8052  31.7464  39.9549

     occupation numbers 
     1.0000   1.0000   1.0000   1.0000   1.0000   0.0000   0.0000   0.0000
     0.0000   0.0000   0.0000   0.0000

          k =-0.3333-1.0000 0.0000 (  1324 PWs)   bands (ev):

   -49.9026 -28.9244  -6.8534  -5.7839  -5.0321  18.3256  18.5887  20.8145
    23.2234  27.6438  35.3677  38.3418

     occupation numbers 
     1.0000   1.0000   1.0000   1.0000   1.0000   0.0000   0.0000   0.0000
     0.0000   0.0000   0.0000   0.0000

     highest occupied, lowest unoccupied level (ev):    -4.0577   11.6370

!    total energy              =     -62.31711515 Ry
     estimated scf accuracy    <          2.8E-09 Ry

     convergence has been achieved in   5 iterations

     Using ACE for calculation of exact exchange
     ACE projected onto    12 (nbndproj) and applied to    12 (nbnd) bands

     total energy              =     -62.31980337 Ry
     Harris-Foulkes estimate   =     -62.31980337 Ry
     est. exchange err (dexx)  =       0.00268822 Ry
     - averaged Fock potential =      17.62576437 Ry
     + Fock energy (ACE)       =      -8.85167518 Ry

     EXX: now go back to refine exchange calculation

     total cpu time spent up to now is      135.6 secs

     Self-consistent Calculation

     iteration #  1     ecut=    80.00 Ry     beta= 0.70
     Davidson diagonalization with overlap

---- Real-time Memory Report at c_bands before calling an iterative solver
          1640 MiB given to the printing process from OS
             0 MiB allocation reported by mallinfo(arena+hblkhd)
         11377 MiB available memory on the node where the printing process lives
------------------
     ethr =  4.89E-10,  avg # of iterations =  5.0

     total cpu time spent up to now is      135.8 secs

     total energy              =     -62.32026458 Ry
     estimated scf accuracy    <       0.00014264 Ry

     iteration #  2     ecut=    80.00 Ry     beta= 0.70
     Davidson diagonalization with overlap

---- Real-time Memory Report at c_bands before calling an iterative solver
          1640 MiB given to the printing process from OS
             0 MiB allocation reported by mallinfo(arena+hblkhd)
         11374 MiB available memory on the node where the printing process lives
------------------
     ethr =  1.43E-06,  avg # of iterations =  2.0

     total cpu time spent up to now is      136.0 secs

     total energy              =     -62.32029490 Ry
     estimated scf accuracy    <       0.00002767 Ry

     iteration #  3     ecut=    80.00 Ry     beta= 0.70
     Davidson diagonalization with overlap

---- Real-time Memory Report at c_bands before calling an iterative solver
          1640 MiB given to the printing process from OS
             0 MiB allocation reported by mallinfo(arena+hblkhd)
         11374 MiB available memory on the node where the printing process lives
------------------
     ethr =  2.77E-07,  avg # of iterations =  2.0

     total cpu time spent up to now is      136.1 secs

     total energy              =     -62.32030237 Ry
     estimated scf accuracy    <       0.00000108 Ry

     iteration #  4     ecut=    80.00 Ry     beta= 0.70
     Davidson diagonalization with overlap

---- Real-time Memory Report at c_bands before calling an iterative solver
          1640 MiB given to the printing process from OS
             0 MiB allocation reported by mallinfo(arena+hblkhd)
         11374 MiB available memory on the node where the printing process lives
------------------
     ethr =  1.08E-08,  avg # of iterations =  1.2

     total cpu time spent up to now is      136.2 secs

     End of self-consistent calculation

          k = 0.0000 0.0000 0.0000 (  1363 PWs)   bands (ev):

   -50.0556 -29.6461  -4.0983  -4.0983  -4.0983  11.7580  27.6915  27.6915
    27.6915  27.9952  27.9952  27.9952

     occupation numbers 
     1.0000   1.0000   1.0000   1.0000   1.0000   0.0000   0.0000   0.0000
     0.0000   0.0000   0.0000   0.0000

          k =-0.1667 0.1667-0.1667 (  1330 PWs)   bands (ev):

   -50.0396 -29.5530  -4.8799  -4.1700  -4.1700  12.5631  22.9335  25.3919
    25.3919  29.7018  29.7929  29.7929

     occupation numbers 
     1.0000   1.0000   1.0000   1.0000   1.0000   0.0000   0.0000   0.0000
     0.0000   0.0000   0.0000   0.0000

          k =-0.3333 0.3333-0.3333 (  1326 PWs)   bands (ev):

   -50.0081 -29.3562  -6.2448  -4.3051  -4.3051  13.5452  20.6176  23.1924
    23.1924  32.0143  32.8193  32.8193

     occupation numbers 
     1.0000   1.0000   1.0000   1.0000   1.0000   0.0000   0.0000   0.0000
     0.0000   0.0000   0.0000   0.0000

          k = 0.5000-0.5000 0.5000 (  1350 PWs)   bands (ev):

   -49.9920 -29.2548  -6.8628  -4.3709  -4.3709  13.6178  20.4933  22.3791
    22.3791  34.1825  35.2413  35.2413

     occupation numbers 
     1.0000   1.0000   1.0000   1.0000   1.0000   0.0000   0.0000   0.0000
     0.0000   0.0000   0.0000   0.0000

          k = 0.0000 0.3333 0.0000 (  1327 PWs)   bands (ev):

   -50.0346 -29.5157  -4.8371  -4.3859  -4.3859  13.0037  23.5437  24.8640
    25.0244  25.0244  33.2975  33.2975

     occupation numbers 
     1.0000   1.0000   1.0000   1.0000   1.0000   0.0000   0.0000   0.0000
     0.0000   0.0000   0.0000   0.0000

          k =-0.1667 0.5000-0.1667 (  1330 PWs)   bands (ev):

   -50.0088 -29.3394  -5.9277  -4.6242  -4.5929  14.3665  20.5634  23.1673
    23.9067  27.0022  35.4035  35.4402

     occupation numbers 
     1.0000   1.0000   1.0000   1.0000   1.0000   0.0000   0.0000   0.0000
     0.0000   0.0000   0.0000   0.0000

          k = 0.6667-0.3333 0.6667 (  1336 PWs)   bands (ev):

   -49.9879 -29.1959  -6.6894  -4.9781  -4.5908  14.8549  19.6746  22.5974
    22.8795  30.1772  35.6728  36.3834

     occupation numbers 
     1.0000   1.0000   1.0000   1.0000   1.0000   0.0000   0.0000   0.0000
     0.0000   0.0000   0.0000   0.0000

          k = 0.5000-0.1667 0.5000 (  1338 PWs)   bands (ev):

   -49.9929 -29.2366  -6.4400  -5.1178  -4.3827  14.6873  19.5264  22.8854
    23.0468  32.7550  33.0850  33.5815

     occupation numbers 
     1.0000   1.0000   1.0000   1.0000   1.0000   0.0000   0.0000   0.0000
     0.0000   0.0000   0.0000   0.0000

          k = 0.3333 0.0000 0.3333 (  1341 PWs)   bands (ev):

   -50.0187 -29.4181  -5.5296  -4.7545  -4.1708  13.6567  20.8153  23.8819
    24.1680  29.8268  30.5652  33.7815

     occupation numbers 
     1.0000   1.0000   1.0000   1.0000   1.0000   0.0000   0.0000   0.0000
     0.0000   0.0000   0.0000   0.0000

          k = 0.0000 0.6667 0.0000 (  1331 PWs)   bands (ev):

   -49.9948 -29.1995  -6.4467  -4.9371  -4.9371  16.0637  20.3828  22.1473
    24.2596  24.2596  38.9593  39.4196

     occupation numbers 
     1.0000   1.0000   1.0000   1.0000   1.0000   0.0000   0.0000   0.0000
     0.0000   0.0000   0.0000   0.0000

          k = 0.8333-0.1667 0.8333 (  1325 PWs)   bands (ev):

   -49.9797 -29.0748  -6.8944  -5.4030  -5.0064  17.3425  19.0724  21.6665
    23.8245  25.8380  38.0892  39.8529

     occupation numbers 
     1.0000   1.0000   1.0000   1.0000   1.0000   0.0000   0.0000   0.0000
     0.0000   0.0000   0.0000   0.0000

          k = 0.6667-0.0000 0.6667 (  1316 PWs)   bands (ev):

   -49.9790 -29.0925  -6.3951  -6.0483  -4.7373  16.7560  18.5043  22.5846
    23.1678  28.8907  36.0830  36.1744

     occupation numbers 
     1.0000   1.0000   1.0000   1.0000   1.0000   0.0000   0.0000   0.0000
     0.0000   0.0000   0.0000   0.0000

          k = 0.0000-1.0000 0.0000 (  1338 PWs)   bands (ev):

   -49.9756 -29.0134  -7.3091  -5.2048  -5.2048  18.4240  19.3160  20.8295
    24.2712  24.2712  37.7975  42.6963

     occupation numbers 
     1.0000   1.0000   1.0000   1.0000   1.0000   0.0000   0.0000   0.0000
     0.0000   0.0000   0.0000   0.0000

          k = 0.6667-0.3333 1.0000 (  1329 PWs)   bands (ev):

   -49.9888 -29.1776  -6.3748  -5.4524  -4.6847  15.9638  19.1826  22.4009
    23.4441  28.1704  34.6755  38.4627

     occupation numbers 
     1.0000   1.0000   1.0000   1.0000   1.0000   0.0000   0.0000   0.0000
     0.0000   0.0000   0.0000   0.0000

          k = 0.5000-0.1667 0.8333 (  1324 PWs)   bands (ev):

   -49.9789 -29.0934  -6.4955  -5.8830  -4.8101  16.7148  18.8243  22.1814
    22.9355  30.8579  31.8013  39.9828

     occupation numbers 
     1.0000   1.0000   1.0000   1.0000   1.0000   0.0000   0.0000   0.0000
     0.0000   0.0000   0.0000   0.0000

          k =-0.3333-1.0000 0.0000 (  1324 PWs)   bands (ev):

   -49.9747 -29.0322  -6.8317  -5.7858  -5.0543  18.3976  18.6764  20.8857
    23.2867  27.7070  35.4150  38.3624

     occupation numbers 
     1.0000   1.0000   1.0000   1.0000   1.0000   0.0000   0.0000   0.0000
     0.0000   0.0000   0.0000   0.0000

     highest occupied, lowest unoccupied level (ev):    -4.0983   11.7580

!    total energy              =     -62.32030253 Ry
     estimated scf accuracy    <          3.0E-09 Ry

     convergence has been achieved in   4 iterations

     Using ACE for calculation of exact exchange
     ACE projected onto    12 (nbndproj) and applied to    12 (nbnd) bands

     total energy              =     -62.32039842 Ry
     Harris-Foulkes estimate   =     -62.32039842 Ry
     est. exchange err (dexx)  =       0.00009589 Ry
     - averaged Fock potential =      17.71903416 Ry
     + Fock energy (ACE)       =      -8.86745488 Ry

     EXX: now go back to refine exchange calculation

     total cpu time spent up to now is      201.1 secs

     Self-consistent Calculation

     iteration #  1     ecut=    80.00 Ry     beta= 0.70
     Davidson diagonalization with overlap

---- Real-time Memory Report at c_bands before calling an iterative solver
          1640 MiB given to the printing process from OS
             0 MiB allocation reported by mallinfo(arena+hblkhd)
         11377 MiB available memory on the node where the printing process lives
------------------
     ethr =  1.08E-08,  avg # of iterations =  3.0

     total cpu time spent up to now is      201.3 secs

     total energy              =     -62.32041513 Ry
     estimated scf accuracy    <       0.00000713 Ry

     iteration #  2     ecut=    80.00 Ry     beta= 0.70
     Davidson diagonalization with overlap

---- Real-time Memory Report at c_bands before calling an iterative solver
          1640 MiB given to the printing process from OS
             0 MiB allocation reported by mallinfo(arena+hblkhd)
         11374 MiB available memory on the node where the printing process lives
------------------
     ethr =  7.13E-08,  avg # of iterations =  2.0

     total cpu time spent up to now is      201.4 secs

     total energy              =     -62.32041683 Ry
     estimated scf accuracy    <       0.00000151 Ry

     iteration #  3     ecut=    80.00 Ry     beta= 0.70
     Davidson diagonalization with overlap

---- Real-time Memory Report at c_bands before calling an iterative solver
          1640 MiB given to the printing process from OS
             0 MiB allocation reported by mallinfo(arena+hblkhd)
         11373 MiB available memory on the node where the printing process lives
------------------
     ethr =  1.51E-08,  avg # of iterations =  2.0

     total cpu time spent up to now is      201.6 secs

     total energy              =     -62.32041723 Ry
     estimated scf accuracy    <       0.00000004 Ry

     iteration #  4     ecut=    80.00 Ry     beta= 0.70
     Davidson diagonalization with overlap

---- Real-time Memory Report at c_bands before calling an iterative solver
          1640 MiB given to the printing process from OS
             0 MiB allocation reported by mallinfo(arena+hblkhd)
         11373 MiB available memory on the node where the printing process lives
------------------
     ethr =  4.14E-10,  avg # of iterations =  1.5

     total cpu time spent up to now is      201.7 secs

     End of self-consistent calculation

          k = 0.0000 0.0000 0.0000 (  1363 PWs)   bands (ev):

   -50.0701 -29.6566  -4.1065  -4.1065  -4.1065  11.7846  27.7050  27.7050
    27.7050  28.0070  28.0070  28.0070

     occupation numbers 
     1.0000   1.0000   1.0000   1.0000   1.0000   0.0000   0.0000   0.0000
     0.0000   0.0000   0.0000   0.0000

          k =-0.1667 0.1667-0.1667 (  1330 PWs)   bands (ev):

   -50.0543 -29.5638  -4.8833  -4.1779  -4.1779  12.5866  22.9498  25.4050
    25.4050  29.7148  29.8048  29.8048

     occupation numbers 
     1.0000   1.0000   1.0000   1.0000   1.0000   0.0000   0.0000   0.0000
     0.0000   0.0000   0.0000   0.0000

          k =-0.3333 0.3333-0.3333 (  1326 PWs)   bands (ev):

   -50.0229 -29.3679  -6.2425  -4.3128  -4.3128  13.5683  20.6330  23.2068
    23.2068  32.0263  32.8308  32.8308

     occupation numbers 
     1.0000   1.0000   1.0000   1.0000   1.0000   0.0000   0.0000   0.0000
     0.0000   0.0000   0.0000   0.0000

          k = 0.5000-0.5000 0.5000 (  1350 PWs)   bands (ev):

   -50.0070 -29.2668  -6.8583  -4.3784  -4.3784  13.6428  20.5067  22.3940
    22.3940  34.1938  35.2545  35.2545

     occupation numbers 
     1.0000   1.0000   1.0000   1.0000   1.0000   0.0000   0.0000   0.0000
     0.0000   0.0000   0.0000   0.0000

          k = 0.0000 0.3333 0.0000 (  1327 PWs)   bands (ev):

   -50.0493 -29.5267  -4.8405  -4.3925  -4.3925  13.0252  23.5615  24.8769
    25.0381  25.0381  33.3079  33.3079

     occupation numbers 
     1.0000   1.0000   1.0000   1.0000   1.0000   0.0000   0.0000   0.0000
     0.0000   0.0000   0.0000   0.0000

          k =-0.1667 0.5000-0.1667 (  1330 PWs)   bands (ev):

   -50.0237 -29.3511  -5.9262  -4.6297  -4.5989  14.3854  20.5811  23.1811
    23.9204  27.0157  35.4136  35.4504

     occupation numbers 
     1.0000   1.0000   1.0000   1.0000   1.0000   0.0000   0.0000   0.0000
     0.0000   0.0000   0.0000   0.0000

          k = 0.6667-0.3333 0.6667 (  1336 PWs)   bands (ev):

   -50.0029 -29.2082  -6.6853  -4.9818  -4.5971  14.8760  19.6898  22.6112
    22.8938  30.1897  35.6833  36.3954

     occupation numbers 
     1.0000   1.0000   1.0000   1.0000   1.0000   0.0000   0.0000   0.0000
     0.0000   0.0000   0.0000   0.0000

          k = 0.5000-0.1667 0.5000 (  1338 PWs)   bands (ev):

   -50.0079 -29.2487  -6.4370  -5.1208  -4.3901  14.7081  19.5424  22.8998
    23.0601  32.7667  33.0962  33.5931

     occupation numbers 
     1.0000   1.0000   1.0000   1.0000   1.0000   0.0000   0.0000   0.0000
     0.0000   0.0000   0.0000   0.0000

          k = 0.3333 0.0000 0.3333 (  1341 PWs)   bands (ev):

   -50.0335 -29.4295  -5.5299  -4.7592  -4.1790  13.6773  20.8329  23.8953
    24.1815  29.8391  30.5776  33.7924

     occupation numbers 
     1.0000   1.0000   1.0000   1.0000   1.0000   0.0000   0.0000   0.0000
     0.0000   0.0000   0.0000   0.0000

          k = 0.0000 0.6667 0.0000 (  1331 PWs)   bands (ev):

   -50.0098 -29.2119  -6.4425  -4.9416  -4.9416  16.0785  20.4036  22.1615
    24.2731  24.2731  38.9679  39.4257

     occupation numbers 
     1.0000   1.0000   1.0000   1.0000   1.0000   0.0000   0.0000   0.0000
     0.0000   0.0000   0.0000   0.0000

          k = 0.8333-0.1667 0.8333 (  1325 PWs)   bands (ev):

   -49.9948 -29.0877  -6.8886  -5.4050  -5.0107  17.3579  19.0907  21.6808
    23.8380  25.8515  38.0957  39.8608

     occupation numbers 
     1.0000   1.0000   1.0000   1.0000   1.0000   0.0000   0.0000   0.0000
     0.0000   0.0000   0.0000   0.0000

          k = 0.6667-0.0000 0.6667 (  1316 PWs)   bands (ev):

   -49.9941 -29.1054  -6.3919  -6.0472  -4.7431  16.7748  18.5196  22.5977
    23.1817  28.9032  36.0935  36.1843

     occupation numbers 
     1.0000   1.0000   1.0000   1.0000   1.0000   0.0000   0.0000   0.0000
     0.0000   0.0000   0.0000   0.0000

          k = 0.0000-1.0000 0.0000 (  1338 PWs)   bands (ev):

   -49.9907 -29.0267  -7.3014  -5.2082  -5.2082  18.4367  19.3379  20.8440
    24.2844  24.2844  37.8034  42.6995

     occupation numbers 
     1.0000   1.0000   1.0000   1.0000   1.0000   0.0000   0.0000   0.0000
     0.0000   0.0000   0.0000   0.0000

          k = 0.6667-0.3333 1.0000 (  1329 PWs)   bands (ev):

   -50.0038 -29.1900  -6.3714  -5.4539  -4.6904  15.9806  19.2006  22.4152
    23.4572  28.1836  34.6861  38.4721

     occupation numbers 
     1.0000   1.0000   1.0000   1.0000   1.0000   0.0000   0.0000   0.0000
     0.0000   0.0000   0.0000   0.0000

          k = 0.5000-0.1667 0.8333 (  1324 PWs)   bands (ev):

   -49.9940 -29.1062  -6.4922  -5.8821  -4.8154  16.7329  18.8399  22.1960
    22.9484  30.8697  31.8132  39.9896

     occupation numbers 
     1.0000   1.0000   1.0000   1.0000   1.0000   0.0000   0.0000   0.0000
     0.0000   0.0000   0.0000   0.0000

          k =-0.3333-1.0000 0.0000 (  1324 PWs)   bands (ev):

   -49.9899 -29.0454  -6.8263  -5.7858  -5.0585  18.4118  18.6946  20.9007
    23.2995  27.7202  35.4255  38.3682

     occupation numbers 
     1.0000   1.0000   1.0000   1.0000   1.0000   0.0000   0.0000   0.0000
     0.0000   0.0000   0.0000   0.0000

     highest occupied, lowest unoccupied level (ev):    -4.1065   11.7846

!    total energy              =     -62.32041723 Ry
     estimated scf accuracy    <          1.8E-10 Ry

     convergence has been achieved in   4 iterations

     Using ACE for calculation of exact exchange
     ACE projected onto    12 (nbndproj) and applied to    12 (nbnd) bands

     total energy              =     -62.32042103 Ry
     Harris-Foulkes estimate   =     -62.32042103 Ry
     est. exchange err (dexx)  =       0.00000379 Ry
     - averaged Fock potential =      17.73830924 Ry
     + Fock energy (ACE)       =      -8.87085816 Ry

     EXX: now go back to refine exchange calculation

     total cpu time spent up to now is      266.7 secs

     Self-consistent Calculation

     iteration #  1     ecut=    80.00 Ry     beta= 0.70
     Davidson diagonalization with overlap

---- Real-time Memory Report at c_bands before calling an iterative solver
          1640 MiB given to the printing process from OS
             0 MiB allocation reported by mallinfo(arena+hblkhd)
         11378 MiB available memory on the node where the printing process lives
------------------
     ethr =  4.14E-10,  avg # of iterations =  3.0

     total cpu time spent up to now is      266.9 secs

     total energy              =     -62.32042169 Ry
     estimated scf accuracy    <       0.00000037 Ry

     iteration #  2     ecut=    80.00 Ry     beta= 0.70
     Davidson diagonalization with overlap

---- Real-time Memory Report at c_bands before calling an iterative solver
          1640 MiB given to the printing process from OS
             0 MiB allocation reported by mallinfo(arena+hblkhd)
         11375 MiB available memory on the node where the printing process lives
------------------
     ethr =  3.69E-09,  avg # of iterations =  2.0

     total cpu time spent up to now is      267.1 secs

     total energy              =     -62.32042178 Ry
     estimated scf accuracy    <       0.00000008 Ry

     iteration #  3     ecut=    80.00 Ry     beta= 0.70
     Davidson diagonalization with overlap

---- Real-time Memory Report at c_bands before calling an iterative solver
          1640 MiB given to the printing process from OS
             0 MiB allocation reported by mallinfo(arena+hblkhd)
         11375 MiB available memory on the node where the printing process lives
------------------
     ethr =  8.38E-10,  avg # of iterations =  2.0

     total cpu time spent up to now is      267.2 secs

     End of self-consistent calculation

          k = 0.0000 0.0000 0.0000 (  1363 PWs)   bands (ev):

   -50.0733 -29.6578  -4.1086  -4.1086  -4.1086  11.7905  27.7078  27.7078
    27.7078  28.0094  28.0094  28.0094

     occupation numbers 
     1.0000   1.0000   1.0000   1.0000   1.0000   0.0000   0.0000   0.0000
     0.0000   0.0000   0.0000   0.0000

          k =-0.1667 0.1667-0.1667 (  1330 PWs)   bands (ev):

   -50.0574 -29.5651  -4.8844  -4.1799  -4.1799  12.5917  22.9531  25.4077
    25.4077  29.7174  29.8073  29.8073

     occupation numbers 
     1.0000   1.0000   1.0000   1.0000   1.0000   0.0000   0.0000   0.0000
     0.0000   0.0000   0.0000   0.0000

          k =-0.3333 0.3333-0.3333 (  1326 PWs)   bands (ev):

   -50.0261 -29.3693  -6.2423  -4.3148  -4.3148  13.5732  20.6360  23.2097
    23.2097  32.0287  32.8331  32.8331

     occupation numbers 
     1.0000   1.0000   1.0000   1.0000   1.0000   0.0000   0.0000   0.0000
     0.0000   0.0000   0.0000   0.0000

          k = 0.5000-0.5000 0.5000 (  1350 PWs)   bands (ev):

   -50.0103 -29.2683  -6.8577  -4.3804  -4.3804  13.6482  20.5092  22.3970
    22.3970  34.1960  35.2571  35.2571

     occupation numbers 
     1.0000   1.0000   1.0000   1.0000   1.0000   0.0000   0.0000   0.0000
     0.0000   0.0000   0.0000   0.0000

          k = 0.0000 0.3333 0.0000 (  1327 PWs)   bands (ev):

   -50.0524 -29.5280  -4.8415  -4.3944  -4.3944  13.0299  23.5652  24.8795
    25.0408  25.0408  33.3101  33.3101

     occupation numbers 
     1.0000   1.0000   1.0000   1.0000   1.0000   0.0000   0.0000   0.0000
     0.0000   0.0000   0.0000   0.0000

          k =-0.1667 0.5000-0.1667 (  1330 PWs)   bands (ev):

   -50.0269 -29.3525  -5.9262  -4.6312  -4.6005  14.3895  20.5848  23.1839
    23.9232  27.0185  35.4157  35.4525

     occupation numbers 
     1.0000   1.0000   1.0000   1.0000   1.0000   0.0000   0.0000   0.0000
     0.0000   0.0000   0.0000   0.0000

          k = 0.6667-0.3333 0.6667 (  1336 PWs)   bands (ev):

   -50.0062 -29.2097  -6.6848  -4.9829  -4.5988  14.8805  19.6927  22.6139
    22.8967  30.1922  35.6855  36.3978

     occupation numbers 
     1.0000   1.0000   1.0000   1.0000   1.0000   0.0000   0.0000   0.0000
     0.0000   0.0000   0.0000   0.0000

          k = 0.5000-0.1667 0.5000 (  1338 PWs)   bands (ev):

   -50.0112 -29.2502  -6.4366  -5.1218  -4.3921  14.7125  19.5455  22.9026
    23.0628  32.7691  33.0985  33.5955

     occupation numbers 
     1.0000   1.0000   1.0000   1.0000   1.0000   0.0000   0.0000   0.0000
     0.0000   0.0000   0.0000   0.0000

          k = 0.3333 0.0000 0.3333 (  1341 PWs)   bands (ev):

   -50.0367 -29.4308  -5.5303  -4.7606  -4.1811  13.6817  20.8365  23.8979
    24.1842  29.8417  30.5802  33.7946

     occupation numbers 
     1.0000   1.0000   1.0000   1.0000   1.0000   0.0000   0.0000   0.0000
     0.0000   0.0000   0.0000   0.0000

          k = 0.0000 0.6667 0.0000 (  1331 PWs)   bands (ev):

   -50.0130 -29.2135  -6.4419  -4.9429  -4.9429  16.0815  20.4080  22.1643
    24.2757  24.2757  38.9697  39.4269

     occupation numbers 
     1.0000   1.0000   1.0000   1.0000   1.0000   0.0000   0.0000   0.0000
     0.0000   0.0000   0.0000   0.0000

          k = 0.8333-0.1667 0.8333 (  1325 PWs)   bands (ev):

   -49.9981 -29.0894  -6.8877  -5.4058  -5.0120  17.3610  19.0944  21.6837
    23.8406  25.8542  38.0972  39.8625

     occupation numbers 
     1.0000   1.0000   1.0000   1.0000   1.0000   0.0000   0.0000   0.0000
     0.0000   0.0000   0.0000   0.0000

          k = 0.6667-0.0000 0.6667 (  1316 PWs)   bands (ev):

   -49.9974 -29.1071  -6.3915  -6.0473  -4.7447  16.7787  18.5225  22.6003
    23.1845  28.9059  36.0957  36.1864

     occupation numbers 
     1.0000   1.0000   1.0000   1.0000   1.0000   0.0000   0.0000   0.0000
     0.0000   0.0000   0.0000   0.0000

          k = 0.0000-1.0000 0.0000 (  1338 PWs)   bands (ev):

   -49.9939 -29.0284  -7.3001  -5.2093  -5.2093  18.4391  19.3425  20.8471
    24.2870  24.2870  37.8049  42.7001

     occupation numbers 
     1.0000   1.0000   1.0000   1.0000   1.0000   0.0000   0.0000   0.0000
     0.0000   0.0000   0.0000   0.0000

          k = 0.6667-0.3333 1.0000 (  1329 PWs)   bands (ev):

   -50.0070 -29.1915  -6.3710  -5.4546  -4.6919  15.9841  19.2042  22.4180
    23.4598  28.1862  34.6884  38.4741

     occupation numbers 
     1.0000   1.0000   1.0000   1.0000   1.0000   0.0000   0.0000   0.0000
     0.0000   0.0000   0.0000   0.0000

          k = 0.5000-0.1667 0.8333 (  1324 PWs)   bands (ev):

   -49.9972 -29.1079  -6.4918  -5.8823  -4.8169  16.7366  18.8430  22.1989
    22.9509  30.8722  31.8156  39.9911

     occupation numbers 
     1.0000   1.0000   1.0000   1.0000   1.0000   0.0000   0.0000   0.0000
     0.0000   0.0000   0.0000   0.0000

          k =-0.3333-1.0000 0.0000 (  1324 PWs)   bands (ev):

   -49.9931 -29.0471  -6.8254  -5.7861  -5.0598  18.4145  18.6982  20.9039
    23.3020  27.7229  35.4276  38.3696

     occupation numbers 
     1.0000   1.0000   1.0000   1.0000   1.0000   0.0000   0.0000   0.0000
     0.0000   0.0000   0.0000   0.0000

     highest occupied, lowest unoccupied level (ev):    -4.1086   11.7905

!    total energy              =     -62.32042180 Ry
     estimated scf accuracy    <          1.7E-09 Ry

     convergence has been achieved in   3 iterations

     Using ACE for calculation of exact exchange
     ACE projected onto    12 (nbndproj) and applied to    12 (nbnd) bands

     total energy              =     -62.32042197 Ry
     Harris-Foulkes estimate   =     -62.32042197 Ry
     est. exchange err (dexx)  =       0.00000017 Ry
     - averaged Fock potential =      17.74248625 Ry
     + Fock energy (ACE)       =      -8.87162826 Ry

     EXX: now go back to refine exchange calculation

     total cpu time spent up to now is      331.6 secs

     Self-consistent Calculation

     iteration #  1     ecut=    80.00 Ry     beta= 0.70
     Davidson diagonalization with overlap

---- Real-time Memory Report at c_bands before calling an iterative solver
          1640 MiB given to the printing process from OS
             0 MiB allocation reported by mallinfo(arena+hblkhd)
         11380 MiB available memory on the node where the printing process lives
------------------
     ethr =  8.38E-10,  avg # of iterations =  2.0

     total cpu time spent up to now is      331.8 secs

     total energy              =     -62.32042200 Ry
     estimated scf accuracy    <       0.00000002 Ry

     iteration #  2     ecut=    80.00 Ry     beta= 0.70
     Davidson diagonalization with overlap

---- Real-time Memory Report at c_bands before calling an iterative solver
          1640 MiB given to the printing process from OS
             0 MiB allocation reported by mallinfo(arena+hblkhd)
         11377 MiB available memory on the node where the printing process lives
------------------
     ethr =  1.52E-10,  avg # of iterations =  2.0

     total cpu time spent up to now is      331.9 secs

     End of self-consistent calculation

          k = 0.0000 0.0000 0.0000 (  1363 PWs)   bands (ev):

   -50.0741 -29.6572  -4.1084  -4.1084  -4.1084  11.7920  27.7085  27.7085
    27.7085  28.0098  28.0098  28.0098

     occupation numbers 
     1.0000   1.0000   1.0000   1.0000   1.0000   0.0000   0.0000   0.0000
     0.0000   0.0000   0.0000   0.0000

          k =-0.1667 0.1667-0.1667 (  1330 PWs)   bands (ev):

   -50.0583 -29.5644  -4.8840  -4.1797  -4.1797  12.5930  22.9539  25.4083
    25.4083  29.7180  29.8079  29.8079

     occupation numbers 
     1.0000   1.0000   1.0000   1.0000   1.0000   0.0000   0.0000   0.0000
     0.0000   0.0000   0.0000   0.0000

          k =-0.3333 0.3333-0.3333 (  1326 PWs)   bands (ev):

   -50.0270 -29.3687  -6.2417  -4.3146  -4.3146  13.5745  20.6368  23.2103
    23.2103  32.0292  32.8337  32.8337

     occupation numbers 
     1.0000   1.0000   1.0000   1.0000   1.0000   0.0000   0.0000   0.0000
     0.0000   0.0000   0.0000   0.0000

          k = 0.5000-0.5000 0.5000 (  1350 PWs)   bands (ev):

   -50.0111 -29.2677  -6.8570  -4.3802  -4.3802  13.6494  20.5100  22.3977
    22.3977  34.1965  35.2578  35.2578

     occupation numbers 
     1.0000   1.0000   1.0000   1.0000   1.0000   0.0000   0.0000   0.0000
     0.0000   0.0000   0.0000   0.0000

          k = 0.0000 0.3333 0.0000 (  1327 PWs)   bands (ev):

   -50.0533 -29.5273  -4.8411  -4.3941  -4.3941  13.0311  23.5661  24.8800
    25.0414  25.0414  33.3105  33.3105

     occupation numbers 
     1.0000   1.0000   1.0000   1.0000   1.0000   0.0000   0.0000   0.0000
     0.0000   0.0000   0.0000   0.0000

          k =-0.1667 0.5000-0.1667 (  1330 PWs)   bands (ev):

   -50.0277 -29.3519  -5.9256  -4.6309  -4.6003  14.3905  20.5856  23.1845
    23.9238  27.0191  35.4162  35.4530

     occupation numbers 
     1.0000   1.0000   1.0000   1.0000   1.0000   0.0000   0.0000   0.0000
     0.0000   0.0000   0.0000   0.0000

          k = 0.6667-0.3333 0.6667 (  1336 PWs)   bands (ev):

   -50.0070 -29.2091  -6.6841  -4.9826  -4.5986  14.8816  19.6935  22.6145
    22.8973  30.1929  35.6860  36.3984

     occupation numbers 
     1.0000   1.0000   1.0000   1.0000   1.0000   0.0000   0.0000   0.0000
     0.0000   0.0000   0.0000   0.0000

          k = 0.5000-0.1667 0.5000 (  1338 PWs)   bands (ev):

   -50.0120 -29.2496  -6.4360  -5.1214  -4.3918  14.7136  19.5464  22.9033
    23.0634  32.7697  33.0991  33.5961

     occupation numbers 
     1.0000   1.0000   1.0000   1.0000   1.0000   0.0000   0.0000   0.0000
     0.0000   0.0000   0.0000   0.0000

          k = 0.3333 0.0000 0.3333 (  1341 PWs)   bands (ev):

   -50.0376 -29.4302  -5.5298  -4.7603  -4.1809  13.6828  20.8374  23.8986
    24.1848  29.8423  30.5807  33.7952

     occupation numbers 
     1.0000   1.0000   1.0000   1.0000   1.0000   0.0000   0.0000   0.0000
     0.0000   0.0000   0.0000   0.0000

          k = 0.0000 0.6667 0.0000 (  1331 PWs)   bands (ev):

   -50.0138 -29.2129  -6.4412  -4.9426  -4.9426  16.0824  20.4090  22.1650
    24.2764  24.2764  38.9703  39.4273

     occupation numbers 
     1.0000   1.0000   1.0000   1.0000   1.0000   0.0000   0.0000   0.0000
     0.0000   0.0000   0.0000   0.0000

          k = 0.8333-0.1667 0.8333 (  1325 PWs)   bands (ev):

   -49.9989 -29.0888  -6.8870  -5.4054  -5.0117  17.3619  19.0953  21.6844
    23.8412  25.8549  38.0977  39.8629

     occupation numbers 
     1.0000   1.0000   1.0000   1.0000   1.0000   0.0000   0.0000   0.0000
     0.0000   0.0000   0.0000   0.0000

          k = 0.6667-0.0000 0.6667 (  1316 PWs)   bands (ev):

   -49.9982 -29.1065  -6.3909  -6.0468  -4.7444  16.7797  18.5233  22.6009
    23.1851  28.9066  36.0961  36.1869

     occupation numbers 
     1.0000   1.0000   1.0000   1.0000   1.0000   0.0000   0.0000   0.0000
     0.0000   0.0000   0.0000   0.0000

          k = 0.0000-1.0000 0.0000 (  1338 PWs)   bands (ev):

   -49.9948 -29.0278  -7.2993  -5.2089  -5.2089  18.4398  19.3436  20.8478
    24.2876  24.2876  37.8054  42.7004

     occupation numbers 
     1.0000   1.0000   1.0000   1.0000   1.0000   0.0000   0.0000   0.0000
     0.0000   0.0000   0.0000   0.0000

          k = 0.6667-0.3333 1.0000 (  1329 PWs)   bands (ev):

   -50.0079 -29.1909  -6.3704  -5.4542  -4.6917  15.9851  19.2051  22.4186
    23.4604  28.1869  34.6890  38.4745

     occupation numbers 
     1.0000   1.0000   1.0000   1.0000   1.0000   0.0000   0.0000   0.0000
     0.0000   0.0000   0.0000   0.0000

          k = 0.5000-0.1667 0.8333 (  1324 PWs)   bands (ev):

   -49.9981 -29.1073  -6.4912  -5.8818  -4.8166  16.7375  18.8438  22.1996
    22.9515  30.8728  31.8161  39.9915

     occupation numbers 
     1.0000   1.0000   1.0000   1.0000   1.0000   0.0000   0.0000   0.0000
     0.0000   0.0000   0.0000   0.0000

          k =-0.3333-1.0000 0.0000 (  1324 PWs)   bands (ev):

   -49.9940 -29.0465  -6.8248  -5.7856  -5.0594  18.4153  18.6992  20.9046
    23.3026  27.7235  35.4281  38.3700

     occupation numbers 
     1.0000   1.0000   1.0000   1.0000   1.0000   0.0000   0.0000   0.0000
     0.0000   0.0000   0.0000   0.0000

     highest occupied, lowest unoccupied level (ev):    -4.1084   11.7920

!    total energy              =     -62.32042200 Ry
     estimated scf accuracy    <          3.6E-09 Ry

     convergence has been achieved in   2 iterations

     Using ACE for calculation of exact exchange
     ACE projected onto    12 (nbndproj) and applied to    12 (nbnd) bands

!!   total energy              =     -62.32042201 Ry
     Harris-Foulkes estimate   =     -62.32042201 Ry
     est. exchange err (dexx)  =          5.7E-09 Ry
     - averaged Fock potential =      17.74335703 Ry
     + Fock energy (ACE)       =      -8.87172877 Ry

     EXX self-consistency reached

     Writing all to output data dir ./out6/lif6.save/ :
     XML data file, charge density, pseudopotentials, collected wavefunctions

     init_run     :      1.54s CPU      0.42s WALL (       1 calls)
     electrons    :     27.94s CPU      4.01s WALL (       6 calls)

     Called by init_run:
     aceinit0     :      0.00s CPU      0.00s WALL (       1 calls)
     wfcinit      :      0.85s CPU      0.19s WALL (       1 calls)
     wfcinit:wfcr :      0.81s CPU      0.18s WALL (      16 calls)
     potinit      :      0.05s CPU      0.02s WALL (       1 calls)
     hinit0       :      0.63s CPU      0.21s WALL (       1 calls)

     Called by electrons:
     c_bands      :     22.80s CPU      3.27s WALL (      25 calls)
     sum_band     :      4.13s CPU      0.60s WALL (      25 calls)
     v_of_rho     :      0.88s CPU      0.13s WALL (      26 calls)
     v_h          :      0.02s CPU      0.00s WALL (      26 calls)
     v_xc         :      0.86s CPU      0.13s WALL (      26 calls)
     mix_rho      :      0.06s CPU      0.01s WALL (      25 calls)

     Called by c_bands:
     init_us_2    :      0.83s CPU      0.10s WALL (     816 calls)
     cegterg      :     21.85s CPU      3.14s WALL (     400 calls)

     Called by sum_band:
     sum_band:wei :      0.00s CPU      0.00s WALL (      25 calls)
     sum_band:loo :      4.02s CPU      0.58s WALL (      25 calls)
     sum_band:buf :      0.10s CPU      0.01s WALL (     400 calls)
     sum_band:ini :      0.33s CPU      0.05s WALL (     400 calls)

     Called by *egterg:
     cdiaghg      :      0.75s CPU      0.11s WALL (    1293 calls)
     cegterg:over :      0.46s CPU      0.07s WALL (     989 calls)
     cegterg:upda :      0.32s CPU      0.04s WALL (     989 calls)
     cegterg:last :      0.46s CPU      0.06s WALL (     874 calls)
     h_psi        :     19.97s CPU      2.93s WALL (    1405 calls)
     g_psi        :      0.32s CPU      0.04s WALL (     989 calls)

     Called by h_psi:
     h_psi:calbec :      0.49s CPU      0.07s WALL (    1405 calls)
     vloc_psi     :     18.57s CPU      2.74s WALL (    1405 calls)
                                        0.00s GPU  (    1405 calls)
     add_vuspsi   :      0.30s CPU      0.04s WALL (    1405 calls)

     General routines
     calbec       :      0.95s CPU      0.13s WALL (    2823 calls)
     fft          :      0.38s CPU      0.15s WALL (     253 calls)
     ffts         :      0.00s CPU      0.00s WALL (      25 calls)
     fftw         :     17.48s CPU      2.50s WALL (   30116 calls)
     fftc         :   1081.30s CPU    265.75s WALL ( 5971968 calls)
     fftcw        :      1.29s CPU      0.27s WALL (    3456 calls)


     EXX routines
     exx_grid     :      0.03s CPU      0.01s WALL (       1 calls)
     exxinit      :      5.31s CPU      1.08s WALL (       6 calls)
     vexx         :   1587.31s CPU    391.36s WALL (      96 calls)
     matcalc      :      0.46s CPU      0.06s WALL (    1418 calls)
     aceupdate    :      0.08s CPU      0.02s WALL (      96 calls)
     vexxace      :      0.65s CPU      0.09s WALL (    1146 calls)
     aceinit      :   1587.44s CPU    391.40s WALL (      96 calls)

     PWSCF        :  27m 2.77s CPU   6m37.02s WALL


   This run was terminated on:  15:57:13  16Jun2026            

=------------------------------------------------------------------------------=
   JOB DONE.
=------------------------------------------------------------------------------=
