
     Program PWSCF v.7.5 starts on 26Jun2026 at 10:13:50 

     This program is part of the open-source Quantum ESPRESSO suite
     for quantum simulation of materials; please cite
         "P. Giannozzi et al., J. Phys.:Condens. Matter 21 395502 (2009);
         "P. Giannozzi et al., J. Phys.:Condens. Matter 29 465901 (2017);
         "P. Giannozzi et al., J. Chem. Phys. 152 154105 (2020);
          URL http://www.quantum-espresso.org", 
     in publications or presentations arising from this work. More details at
     http://www.quantum-espresso.org/quote

     Parallel version (MPI & OpenMP), running on       4 processor cores
     Number of MPI processes:                 4
     Threads/MPI process:                     1

     MPI processes distributed on     1 nodes
     13903 MiB available memory on the printing compute node when the environment starts

     Reading input from alas.qc.in

     Current dimensions of program PWSCF are:
     Max number of different atomic species (ntypx) = 10
     Max number of k-points (npk) =  40000
     Max angular momentum in pseudopotentials (lmaxx) =  4

     IMPORTANT: XC functional enforced from input :
     Exchange-correlation= HSE
                           (   1   4  12   4   0   0   0)
     EXX-fraction              =        0.25
     Any further DFT definition will be discarded
     Please, verify this is what you really want

     EXX Screening parameter changed:    0.6054000
     EXX fraction changed:   1.00
     DD-RSH-CAM (LMODELHF) semilocal: AEXX, BEXX =   0.1246  0.3168
     DD-RSH-CAM (LMODELHF) enabled
     AEXX =  0.1246   BEXX =  0.3168   mu(bohr^-1) =  0.6054

     R & G space division:  proc/nbgrp/npool/nimage =       4
     Subspace diagonalization in iterative solution of the eigenvalue problem:
     a serial algorithm will be used

     EXX: q-point mesh:     6    6    6
     EXX: setup a grid of 216 q-points centered on each k-point
     (k+q)-points:
   0.0000000   0.0000000   0.0000000         1    1
  -0.1666667   0.1666667  -0.1666667         2    1
  -0.3333333   0.3333333  -0.3333333         3    1
   0.5000000  -0.5000000   0.5000000         4    1
   0.3333333  -0.3333333   0.3333333         3   -1
   0.1666667  -0.1666667   0.1666667         2   -1
   0.1666667   0.1666667   0.1666667         2    3
   0.0000000   0.3333333   0.0000000         5    1
  -0.1666667   0.5000000  -0.1666667         6    1
   0.6666667  -0.3333333   0.6666667         7    1
   0.5000000  -0.1666667   0.5000000         8    1
   0.3333333   0.0000000   0.3333333         9    1
   0.3333333   0.3333333   0.3333333         3    3
   0.1666667   0.5000000   0.1666667         6    3
   0.0000000   0.6666667   0.0000000        10    1
   0.8333333  -0.1666667   0.8333333        11    1
   0.6666667   0.0000000   0.6666667        12    1
   0.5000000   0.1666667   0.5000000         8   -3
  -0.5000000  -0.5000000  -0.5000000         4    3
  -0.6666667  -0.3333333  -0.6666667         7    3
  -0.8333333  -0.1666667  -0.8333333        11    3
   0.0000000  -1.0000000   0.0000000        13    1
   0.8333333   0.1666667   0.8333333        11   -3
   0.6666667   0.3333333   0.6666667         7   -3
  -0.3333333  -0.3333333  -0.3333333         3   -3
  -0.5000000  -0.1666667  -0.5000000         8    3
  -0.6666667   0.0000000  -0.6666667        12   -1
  -0.8333333   0.1666667  -0.8333333        11   -1
   0.0000000  -0.6666667   0.0000000        10   -1
  -0.1666667  -0.5000000  -0.1666667         6   -3
  -0.1666667  -0.1666667  -0.1666667         2   -3
  -0.3333333   0.0000000  -0.3333333         9   -1
  -0.5000000   0.1666667  -0.5000000         8   -1
  -0.6666667   0.3333333  -0.6666667         7   -1
   0.1666667  -0.5000000   0.1666667         6   -1
   0.0000000  -0.3333333   0.0000000         5   -1
  -0.1666667  -0.1666667   0.1666667         2    4
  -0.3333333   0.0000000   0.0000000         5   -9
  -0.5000000   0.1666667  -0.1666667         6   10
   0.3333333  -0.6666667   0.6666667         7   10
   0.1666667  -0.5000000   0.5000000         8   10
   0.0000000  -0.3333333   0.3333333         9   10
   0.0000000   0.0000000   0.3333333         5    5
  -0.1666667   0.1666667   0.1666667         2   -2
  -0.3333333   0.3333333   0.0000000         9    7
  -0.5000000   0.5000000  -0.1666667         8   -8
  -0.6666667   0.6666667  -0.3333333         7   -8
   0.1666667  -0.1666667   0.5000000         6   -8
   0.1666667   0.1666667   0.5000000         6    6
   0.0000000   0.3333333   0.3333333         9    9
  -0.1666667   0.5000000   0.1666667         6   -2
   0.6666667  -0.3333333   1.0000000        14    1
   0.5000000  -0.1666667   0.8333333        15    1
  -0.6666667   1.0000000  -0.3333333        14  -21
  -0.6666667  -0.6666667  -0.3333333         7    6
   0.1666667   0.5000000   0.5000000         8  -12
  -1.0000000  -0.3333333  -0.6666667        14   17
   0.8333333  -0.1666667  -0.8333333        11   -2
  -0.3333333  -1.0000000   0.0000000        16    1
   0.5000000   0.1666667   0.8333333        15   -3
  -0.5000000  -0.5000000  -0.1666667         8    6
   0.3333333   0.6666667   0.6666667         7  -12
   0.1666667   0.8333333   0.5000000        15  -12
   0.0000000  -1.0000000   0.3333333        16   17
   0.8333333   0.1666667  -0.8333333        11    4
   0.6666667   0.3333333   1.0000000        14   -3
  -0.3333333  -0.3333333   0.0000000         9   -5
  -0.5000000  -0.1666667  -0.1666667         6  -12
   0.3333333  -1.0000000   0.6666667        14   10
   0.1666667  -0.8333333   0.5000000        15   10
  -1.0000000   0.3333333  -0.6666667        14  -18
  -0.1666667  -0.5000000   0.1666667         6    4
  -0.3333333  -0.3333333   0.3333333         3    4
  -0.5000000  -0.1666667   0.1666667         6   11
  -0.6666667   0.0000000   0.0000000        10   -9
   0.1666667  -0.8333333   0.8333333        11   10
   0.0000000  -0.6666667   0.6666667        12   10
  -0.1666667  -0.5000000   0.5000000         8  -11
  -0.1666667  -0.1666667   0.5000000         6    5
  -0.3333333   0.0000000   0.3333333         9    2
  -0.5000000   0.1666667   0.1666667         6   -9
   0.3333333  -0.6666667   1.0000000        14   13
  -0.8333333   0.5000000  -0.1666667        15   -8
   1.0000000   0.6666667  -0.3333333        14    5
   0.0000000   0.0000000   0.6666667        10    5
  -0.1666667   0.1666667   0.5000000         6   -7
  -0.3333333   0.3333333   0.3333333         3   -2
  -0.5000000   0.5000000   0.1666667         8    7
  -0.6666667   0.6666667   0.0000000        12    7
  -0.8333333   0.8333333  -0.1666667        11   -8
  -0.8333333  -0.8333333  -0.1666667        11    6
  -1.0000000  -0.6666667  -0.3333333        14    6
  -0.1666667   0.5000000   0.5000000         8    9
   0.6666667  -0.3333333  -0.6666667         7   -2
   0.5000000  -0.1666667  -0.8333333        15   -2
   0.3333333   0.0000000  -1.0000000        16  -21
  -0.6666667  -0.6666667   0.0000000        12   -5
  -0.8333333  -0.5000000  -0.1666667        15    6
   0.0000000   0.6666667   0.6666667        12    9
  -0.1666667   0.8333333   0.5000000        15    9
   0.6666667   0.0000000  -0.6666667        12   -2
   0.5000000   0.1666667  -0.8333333        15    4
  -0.5000000  -0.5000000   0.1666667         8   -5
   0.3333333   0.6666667   1.0000000        14  -15
   0.1666667   0.8333333   0.8333333        11  -12
  -1.0000000   0.0000000  -0.3333333        16    9
  -0.1666667  -0.8333333   0.5000000        15  -11
   0.6666667   0.3333333  -0.6666667         7    4
   0.5000000   0.5000000  -0.5000000         4    4
   0.3333333   0.6666667  -0.6666667         7   11
   0.1666667   0.8333333  -0.8333333        11   11
  -1.0000000   0.0000000   0.0000000        13    9
  -0.1666667  -0.8333333   0.8333333        11  -11
  -0.3333333  -0.6666667   0.6666667         7  -11
   0.6666667   0.6666667  -0.3333333         7    5
  -0.5000000  -0.1666667   0.5000000         8   -4
   0.3333333  -1.0000000  -0.6666667        14   -9
   0.1666667  -0.8333333  -0.8333333        11   -9
   1.0000000   0.3333333   0.0000000        16   13
   0.8333333   0.5000000  -0.1666667        15    5
   0.8333333   0.8333333  -0.1666667        11    5
   0.6666667   1.0000000  -0.3333333        14   22
  -0.5000000   0.1666667   0.5000000         8    2
   0.3333333  -0.6666667  -0.6666667         7   -9
  -0.8333333   0.5000000   0.1666667        15    7
   0.0000000  -0.3333333  -1.0000000        16    5
   0.0000000   0.0000000  -1.0000000        13    5
   0.8333333  -0.8333333  -0.1666667        11   -7
   0.6666667  -0.6666667  -0.3333333         7   -7
  -0.5000000   0.5000000   0.5000000         4    2
  -0.6666667   0.6666667   0.3333333         7    7
  -0.8333333   0.8333333   0.1666667        11    7
  -0.8333333  -0.8333333   0.1666667        11   -5
   0.0000000   0.3333333   1.0000000        16   -5
   0.8333333  -0.5000000  -0.1666667        15   -7
  -0.3333333   0.6666667   0.6666667         7    9
   0.5000000  -0.1666667  -0.5000000         8   -2
  -0.6666667  -1.0000000   0.3333333        14  -22
  -0.6666667  -0.6666667   0.3333333         7   -5
  -0.8333333  -0.5000000   0.1666667        15   -5
  -1.0000000  -0.3333333   0.0000000        16  -13
  -0.1666667   0.8333333   0.8333333        11    9
  -0.3333333   1.0000000   0.6666667        14    9
   0.5000000   0.1666667  -0.5000000         8    4
   0.3333333   0.3333333  -0.3333333         3   -4
   0.1666667   0.5000000  -0.5000000         8   11
   0.0000000   0.6666667  -0.6666667        12  -10
  -0.1666667   0.8333333  -0.8333333        11  -10
   0.6666667   0.0000000   0.0000000        10    9
   0.5000000   0.1666667  -0.1666667         6  -11
   0.5000000   0.5000000  -0.1666667         8    5
  -0.6666667  -0.3333333   0.6666667         7   -4
   0.1666667   0.8333333  -0.5000000        15   11
   1.0000000   0.0000000   0.3333333        16   -9
  -0.1666667  -0.8333333  -0.8333333        11   12
  -0.3333333  -0.6666667  -1.0000000        14   15
   0.6666667   0.6666667   0.0000000        12    5
  -0.5000000  -0.1666667   0.8333333        15   -4
  -0.6666667   0.0000000   0.6666667        12    2
   0.1666667  -0.8333333  -0.5000000        15   -9
   0.0000000  -0.6666667  -0.6666667        12   -9
   0.8333333   0.5000000   0.1666667        15   -6
   0.8333333   0.8333333   0.1666667        11   -6
  -0.3333333   0.0000000   1.0000000        16   21
  -0.5000000   0.1666667   0.8333333        15    2
  -0.6666667   0.3333333   0.6666667         7    2
   0.1666667  -0.5000000  -0.5000000         8   -9
   1.0000000   0.6666667   0.3333333        14   -6
   0.0000000   0.0000000  -0.6666667        10   -5
   0.8333333  -0.8333333   0.1666667        11    8
   0.6666667  -0.6666667   0.0000000        12   -7
   0.5000000  -0.5000000  -0.1666667         8   -7
   0.3333333  -0.3333333  -0.3333333         3    2
   0.1666667  -0.1666667  -0.5000000         6    7
   0.1666667   0.1666667  -0.5000000         6   -5
  -1.0000000  -0.6666667   0.3333333        14   -5
   0.8333333  -0.5000000   0.1666667        15    8
  -0.3333333   0.6666667  -1.0000000        14  -13
   0.5000000  -0.1666667  -0.1666667         6    9
   0.3333333   0.0000000  -0.3333333         9   -2
   0.1666667   0.1666667  -0.1666667         2   -4
   0.0000000   0.3333333  -0.3333333         9  -10
  -0.1666667   0.5000000  -0.5000000         8  -10
  -0.3333333   0.6666667  -0.6666667         7  -10
   0.5000000  -0.1666667   0.1666667         6  -10
   0.3333333   0.0000000   0.0000000         5    9
   0.3333333   0.3333333   0.0000000         9    5
   0.1666667   0.5000000  -0.1666667         6   -4
   1.0000000  -0.3333333   0.6666667        14   18
  -0.1666667   0.8333333  -0.5000000        15  -10
  -0.3333333   1.0000000  -0.6666667        14  -10
   0.5000000   0.1666667   0.1666667         6   12
   0.5000000   0.5000000   0.1666667         8   -6
  -0.6666667  -0.3333333  -1.0000000        14    3
  -0.8333333  -0.1666667   0.8333333        11   -4
   0.0000000   1.0000000  -0.3333333        16  -17
  -0.1666667  -0.8333333  -0.5000000        15   12
  -0.3333333  -0.6666667  -0.6666667         7   12
   0.6666667   0.6666667   0.3333333         7   -6
  -0.5000000  -0.1666667  -0.8333333        15    3
   0.3333333   1.0000000   0.0000000        16   -1
  -0.8333333   0.1666667   0.8333333        11    2
   1.0000000   0.3333333   0.6666667        14  -17
  -0.1666667  -0.5000000  -0.5000000         8   12
  -0.1666667  -0.1666667  -0.5000000         6   -6
   0.6666667  -1.0000000   0.3333333        14   21
  -0.5000000   0.1666667  -0.8333333        15   -1
  -0.6666667   0.3333333  -1.0000000        14   -1
   0.1666667  -0.5000000  -0.1666667         6    2
   0.0000000  -0.3333333  -0.3333333         9   -9
   0.0000000   0.0000000  -0.3333333         5   -5
  -0.1666667   0.1666667  -0.5000000         6    8
   0.6666667  -0.6666667   0.3333333         7    8
   0.5000000  -0.5000000   0.1666667         8    8
   0.3333333  -0.3333333   0.0000000         9   -7
   0.1666667  -0.1666667  -0.1666667         2    2

     Parallelization info
     --------------------
     sticks:   dense  smooth     PW     G-vecs:    dense   smooth      PW
     Min         238     238     70                 4798     4798     784
     Max         239     239     71                 4799     4799     787
     Sum         955     955    283                19195    19195    3143

     Using Slab Decomposition



     bravais-lattice index     =            2
     lattice parameter (alat)  =      10.6960  a.u.
     unit-cell volume          =     305.9174 (a.u.)^3
     number of atoms/cell      =            2
     number of atomic types    =            2
     number of electrons       =        16.00
     number of Kohn-Sham states=           16
     kinetic-energy cutoff     =      60.0000  Ry
     charge density cutoff     =     240.0000  Ry
     cutoff for Fock operator  =     240.0000  Ry
     scf convergence threshold =      1.0E-08
     mixing beta               =       0.7000
     number of iterations used =            8  plain     mixing
     Exchange-correlation= HSE
                           (   1   4  12   4   0   0   0)
     EXX-fraction              =        1.00

     celldm(1)=  10.696000  celldm(2)=   0.000000  celldm(3)=   0.000000
     celldm(4)=   0.000000  celldm(5)=   0.000000  celldm(6)=   0.000000

     crystal axes: (cart. coord. in units of alat)
               a(1) = (  -0.500000   0.000000   0.500000 )  
               a(2) = (   0.000000   0.500000   0.500000 )  
               a(3) = (  -0.500000   0.500000   0.000000 )  

     reciprocal axes: (cart. coord. in units 2 pi/alat)
               b(1) = ( -1.000000 -1.000000  1.000000 )  
               b(2) = (  1.000000  1.000000  1.000000 )  
               b(3) = ( -1.000000  1.000000 -1.000000 )  


     PseudoPot. # 1 for Al read from file:
     ../../../../pseudos/Al_ONCV_PBE-1.2.upf
     MD5 check sum: 2d9e7bc02555220d62fad08c3c4858e7
     Pseudo is Norm-conserving, Zval = 11.0
     Generated using ONCVPSP code by D. R. Hamann
     Using radial grid of  602 points,  4 beta functions with: 
                l(1) =   0
                l(2) =   0
                l(3) =   1
                l(4) =   1

     PseudoPot. # 2 for As read from file:
     ../../../../pseudos/As_ONCV_PBE-1.2.upf
     MD5 check sum: a2ff92a4799c87c945fff9e6739df4dd
     Pseudo is Norm-conserving, Zval =  5.0
     Generated using ONCVPSP code by D. R. Hamann
     Using radial grid of  602 points,  6 beta functions with: 
                l(1) =   0
                l(2) =   0
                l(3) =   1
                l(4) =   1
                l(5) =   2
                l(6) =   2

     atomic species   valence    mass     pseudopotential
     Al               11.00    26.98200     Al( 1.00)
     As                5.00    74.92200     As( 1.00)

     24 Sym. Ops. (no inversion) found


                                    s                        frac. trans.

      isym =  1     identity                                     

 cryst.   s( 1) = (     1          0          0      )
                  (     0          1          0      )
                  (     0          0          1      )

 cart.    s( 1) = (  1.0000000  0.0000000  0.0000000 )
                  (  0.0000000  1.0000000  0.0000000 )
                  (  0.0000000  0.0000000  1.0000000 )


      isym =  2     180 deg rotation - cart. axis [0,0,1]        

 cryst.   s( 2) = (     0          1         -1      )
                  (     1          0         -1      )
                  (     0          0         -1      )

 cart.    s( 2) = ( -1.0000000  0.0000000  0.0000000 )
                  (  0.0000000 -1.0000000  0.0000000 )
                  (  0.0000000  0.0000000  1.0000000 )


      isym =  3     180 deg rotation - cart. axis [0,1,0]        

 cryst.   s( 3) = (    -1          0          0      )
                  (    -1          0          1      )
                  (    -1          1          0      )

 cart.    s( 3) = ( -1.0000000  0.0000000  0.0000000 )
                  (  0.0000000  1.0000000  0.0000000 )
                  (  0.0000000  0.0000000 -1.0000000 )


      isym =  4     180 deg rotation - cart. axis [1,0,0]        

 cryst.   s( 4) = (     0         -1          1      )
                  (     0         -1          0      )
                  (     1         -1          0      )

 cart.    s( 4) = (  1.0000000  0.0000000  0.0000000 )
                  (  0.0000000 -1.0000000  0.0000000 )
                  (  0.0000000  0.0000000 -1.0000000 )


      isym =  5     120 deg rotation - cart. axis [-1,-1,-1]     

 cryst.   s( 5) = (    -1          0          1      )
                  (    -1          1          0      )
                  (    -1          0          0      )

 cart.    s( 5) = (  0.0000000  1.0000000  0.0000000 )
                  (  0.0000000  0.0000000  1.0000000 )
                  (  1.0000000  0.0000000  0.0000000 )


      isym =  6     120 deg rotation - cart. axis [-1,1,1]       

 cryst.   s( 6) = (     0          1          0      )
                  (     0          0          1      )
                  (     1          0          0      )

 cart.    s( 6) = (  0.0000000 -1.0000000  0.0000000 )
                  (  0.0000000  0.0000000  1.0000000 )
                  ( -1.0000000  0.0000000  0.0000000 )


      isym =  7     120 deg rotation - cart. axis [1,1,-1]       

 cryst.   s( 7) = (     1          0         -1      )
                  (     0          0         -1      )
                  (     0          1         -1      )

 cart.    s( 7) = (  0.0000000  1.0000000  0.0000000 )
                  (  0.0000000  0.0000000 -1.0000000 )
                  ( -1.0000000  0.0000000  0.0000000 )


      isym =  8     120 deg rotation - cart. axis [1,-1,1]       

 cryst.   s( 8) = (     0         -1          0      )
                  (     1         -1          0      )
                  (     0         -1          1      )

 cart.    s( 8) = (  0.0000000 -1.0000000  0.0000000 )
                  (  0.0000000  0.0000000 -1.0000000 )
                  (  1.0000000  0.0000000  0.0000000 )


      isym =  9     120 deg rotation - cart. axis [1,1,1]        

 cryst.   s( 9) = (     0          0         -1      )
                  (     0          1         -1      )
                  (     1          0         -1      )

 cart.    s( 9) = (  0.0000000  0.0000000  1.0000000 )
                  (  1.0000000  0.0000000  0.0000000 )
                  (  0.0000000  1.0000000  0.0000000 )


      isym = 10     120 deg rotation - cart. axis [-1,1,-1]      

 cryst.   s(10) = (    -1          1          0      )
                  (    -1          0          0      )
                  (    -1          0          1      )

 cart.    s(10) = (  0.0000000  0.0000000  1.0000000 )
                  ( -1.0000000  0.0000000  0.0000000 )
                  (  0.0000000 -1.0000000  0.0000000 )


      isym = 11     120 deg rotation - cart. axis [1,-1,-1]      

 cryst.   s(11) = (     0          0          1      )
                  (     1          0          0      )
                  (     0          1          0      )

 cart.    s(11) = (  0.0000000  0.0000000 -1.0000000 )
                  ( -1.0000000  0.0000000  0.0000000 )
                  (  0.0000000  1.0000000  0.0000000 )


      isym = 12     120 deg rotation - cart. axis [-1,-1,1]      

 cryst.   s(12) = (     1         -1          0      )
                  (     0         -1          1      )
                  (     0         -1          0      )

 cart.    s(12) = (  0.0000000  0.0000000 -1.0000000 )
                  (  1.0000000  0.0000000  0.0000000 )
                  (  0.0000000 -1.0000000  0.0000000 )


      isym = 13     inv. 180 deg rotation - cart. axis [1,1,0]   

 cryst.   s(13) = (     0          1          0      )
                  (     1          0          0      )
                  (     0          0          1      )

 cart.    s(13) = (  0.0000000 -1.0000000  0.0000000 )
                  ( -1.0000000  0.0000000  0.0000000 )
                  (  0.0000000  0.0000000  1.0000000 )


      isym = 14     inv. 180 deg rotation - cart. axis [1,-1,0]  

 cryst.   s(14) = (     1          0         -1      )
                  (     0          1         -1      )
                  (     0          0         -1      )

 cart.    s(14) = (  0.0000000  1.0000000  0.0000000 )
                  (  1.0000000  0.0000000  0.0000000 )
                  (  0.0000000  0.0000000  1.0000000 )


      isym = 15     inv.  90 deg rotation - cart. axis [0,0,-1]  

 cryst.   s(15) = (     0         -1          0      )
                  (     0         -1          1      )
                  (     1         -1          0      )

 cart.    s(15) = (  0.0000000 -1.0000000  0.0000000 )
                  (  1.0000000  0.0000000  0.0000000 )
                  (  0.0000000  0.0000000 -1.0000000 )


      isym = 16     inv.  90 deg rotation - cart. axis [0,0,1]   

 cryst.   s(16) = (    -1          0          1      )
                  (    -1          0          0      )
                  (    -1          1          0      )

 cart.    s(16) = (  0.0000000  1.0000000  0.0000000 )
                  ( -1.0000000  0.0000000  0.0000000 )
                  (  0.0000000  0.0000000 -1.0000000 )


      isym = 17     inv. 180 deg rotation - cart. axis [1,0,1]   

 cryst.   s(17) = (     1          0          0      )
                  (     0          0          1      )
                  (     0          1          0      )

 cart.    s(17) = (  0.0000000  0.0000000 -1.0000000 )
                  (  0.0000000  1.0000000  0.0000000 )
                  ( -1.0000000  0.0000000  0.0000000 )


      isym = 18     inv. 180 deg rotation - cart. axis [-1,0,1]  

 cryst.   s(18) = (    -1          0          0      )
                  (    -1          1          0      )
                  (    -1          0          1      )

 cart.    s(18) = (  0.0000000  0.0000000  1.0000000 )
                  (  0.0000000  1.0000000  0.0000000 )
                  (  1.0000000  0.0000000  0.0000000 )


      isym = 19     inv.  90 deg rotation - cart. axis [0,1,0]   

 cryst.   s(19) = (     0         -1          1      )
                  (     1         -1          0      )
                  (     0         -1          0      )

 cart.    s(19) = (  0.0000000  0.0000000 -1.0000000 )
                  (  0.0000000 -1.0000000  0.0000000 )
                  (  1.0000000  0.0000000  0.0000000 )


      isym = 20     inv.  90 deg rotation - cart. axis [0,-1,0]  

 cryst.   s(20) = (     0          1         -1      )
                  (     0          0         -1      )
                  (     1          0         -1      )

 cart.    s(20) = (  0.0000000  0.0000000  1.0000000 )
                  (  0.0000000 -1.0000000  0.0000000 )
                  ( -1.0000000  0.0000000  0.0000000 )


      isym = 21     inv. 180 deg rotation - cart. axis [0,1,1]   

 cryst.   s(21) = (     1         -1          0      )
                  (     0         -1          0      )
                  (     0         -1          1      )

 cart.    s(21) = (  1.0000000  0.0000000  0.0000000 )
                  (  0.0000000  0.0000000 -1.0000000 )
                  (  0.0000000 -1.0000000  0.0000000 )


      isym = 22     inv. 180 deg rotation - cart. axis [0,1,-1]  

 cryst.   s(22) = (     0          0          1      )
                  (     0          1          0      )
                  (     1          0          0      )

 cart.    s(22) = (  1.0000000  0.0000000  0.0000000 )
                  (  0.0000000  0.0000000  1.0000000 )
                  (  0.0000000  1.0000000  0.0000000 )


      isym = 23     inv.  90 deg rotation - cart. axis [-1,0,0]  

 cryst.   s(23) = (     0          0         -1      )
                  (     1          0         -1      )
                  (     0          1         -1      )

 cart.    s(23) = ( -1.0000000  0.0000000  0.0000000 )
                  (  0.0000000  0.0000000 -1.0000000 )
                  (  0.0000000  1.0000000  0.0000000 )


      isym = 24     inv.  90 deg rotation - cart. axis [1,0,0]   

 cryst.   s(24) = (    -1          1          0      )
                  (    -1          0          1      )
                  (    -1          0          0      )

 cart.    s(24) = ( -1.0000000  0.0000000  0.0000000 )
                  (  0.0000000  0.0000000  1.0000000 )
                  (  0.0000000 -1.0000000  0.0000000 )


     point group T_d (-43m) 
     there are  5 classes
     the character table:

       E     8C3   3C2   6S4   6s_d 
A_1    1.00  1.00  1.00  1.00  1.00
A_2    1.00  1.00  1.00 -1.00 -1.00
E      2.00 -1.00  2.00  0.00  0.00
T_1    3.00  0.00 -1.00  1.00 -1.00
T_2    3.00  0.00 -1.00 -1.00  1.00

     the symmetry operations in each class and the name of the first element:

     E        1
          identity                                               
     8C3      5    7    8    6   12    9   10   11
          120 deg rotation - cart. axis [-1,-1,-1]               
     3C2      2    3    4
          180 deg rotation - cart. axis [0,0,1]                  
     6S4     15   16   20   19   23   24
          inv.  90 deg rotation - cart. axis [0,0,-1]            
     6s_d    13   14   17   18   21   22
          inv. 180 deg rotation - cart. axis [1,1,0]             

   Cartesian axes

     site n.     atom                  positions (alat units)
         1        Al     tau(   1) = (   0.0000000   0.0000000   0.0000000  )
         2        As     tau(   2) = (  -0.2500000   0.2500000   0.2500000  )

   Crystallographic axes

     site n.     atom                  positions (cryst. coord.)
         1        Al     tau(   1) = (  0.0000000  0.0000000  0.0000000  )
         2        As     tau(   2) = (  0.2500000  0.2500000  0.2500000  )

     number of k points=    16
                       cart. coord. in units 2pi/alat
        k(    1) = (   0.0000000   0.0000000   0.0000000), wk =   0.0092593
        k(    2) = (  -0.1666667   0.1666667  -0.1666667), wk =   0.0740741
        k(    3) = (  -0.3333333   0.3333333  -0.3333333), wk =   0.0740741
        k(    4) = (   0.5000000  -0.5000000   0.5000000), wk =   0.0370370
        k(    5) = (   0.0000000   0.3333333   0.0000000), wk =   0.0555556
        k(    6) = (  -0.1666667   0.5000000  -0.1666667), wk =   0.2222222
        k(    7) = (   0.6666667  -0.3333333   0.6666667), wk =   0.2222222
        k(    8) = (   0.5000000  -0.1666667   0.5000000), wk =   0.2222222
        k(    9) = (   0.3333333   0.0000000   0.3333333), wk =   0.1111111
        k(   10) = (   0.0000000   0.6666667   0.0000000), wk =   0.0555556
        k(   11) = (   0.8333333  -0.1666667   0.8333333), wk =   0.2222222
        k(   12) = (   0.6666667  -0.0000000   0.6666667), wk =   0.1111111
        k(   13) = (   0.0000000  -1.0000000   0.0000000), wk =   0.0277778
        k(   14) = (   0.6666667  -0.3333333   1.0000000), wk =   0.2222222
        k(   15) = (   0.5000000  -0.1666667   0.8333333), wk =   0.2222222
        k(   16) = (  -0.3333333  -1.0000000   0.0000000), wk =   0.1111111

                       cryst. coord.
        k(    1) = (   0.0000000   0.0000000   0.0000000), wk =   0.0092593
        k(    2) = (   0.0000000   0.0000000   0.1666667), wk =   0.0740741
        k(    3) = (   0.0000000   0.0000000   0.3333333), wk =   0.0740741
        k(    4) = (   0.0000000   0.0000000  -0.5000000), wk =   0.0370370
        k(    5) = (   0.0000000   0.1666667   0.1666667), wk =   0.0555556
        k(    6) = (   0.0000000   0.1666667   0.3333333), wk =   0.2222222
        k(    7) = (   0.0000000   0.1666667  -0.5000000), wk =   0.2222222
        k(    8) = (   0.0000000   0.1666667  -0.3333333), wk =   0.2222222
        k(    9) = (   0.0000000   0.1666667  -0.1666667), wk =   0.1111111
        k(   10) = (   0.0000000   0.3333333   0.3333333), wk =   0.0555556
        k(   11) = (   0.0000000   0.3333333  -0.5000000), wk =   0.2222222
        k(   12) = (   0.0000000   0.3333333  -0.3333333), wk =   0.1111111
        k(   13) = (   0.0000000  -0.5000000  -0.5000000), wk =   0.0277778
        k(   14) = (   0.1666667   0.3333333  -0.5000000), wk =   0.2222222
        k(   15) = (   0.1666667   0.3333333  -0.3333333), wk =   0.2222222
        k(   16) = (   0.1666667  -0.5000000  -0.3333333), wk =   0.1111111

     Dense  grid:    19195 G-vectors     FFT dimensions: (  40,  40,  40)

     Dynamical RAM for                 wfc:       0.15 MB

     Dynamical RAM for     wfc (w. buffer):       2.49 MB

     Dynamical RAM for                 EXX:     510.22 MB

     Dynamical RAM for           str. fact:       0.15 MB

     Dynamical RAM for           local pot:       0.00 MB

     Dynamical RAM for          nlocal pot:       0.24 MB

     Dynamical RAM for                qrad:       2.72 MB

     Dynamical RAM for          rho,v,vnew:       0.59 MB

     Dynamical RAM for               rhoin:       0.20 MB

     Dynamical RAM for            rho*nmix:       1.17 MB

     Dynamical RAM for           G-vectors:       0.31 MB

     Dynamical RAM for          h,s,v(r/c):       0.05 MB

     Dynamical RAM for          <psi|beta>:       0.01 MB

     Dynamical RAM for                 psi:       0.29 MB

     Dynamical RAM for                hpsi:       0.29 MB

     Dynamical RAM for      wfcinit/wfcrot:       0.30 MB

     Estimated static dynamical RAM per process >     517.74 MB

     Estimated max dynamical RAM per process >     519.55 MB

     Estimated total dynamical RAM >       2.03 GB
     EXX: ACE will be initialized later

     Initial potential from superposition of free atoms

     starting charge      15.8865, renormalised to      16.0000
     Starting wfcs are random

     total cpu time spent up to now is        0.3 secs

     Self-consistent Calculation

     iteration #  1     ecut=    60.00 Ry     beta= 0.70
     Davidson diagonalization with overlap

---- Real-time Memory Report at c_bands before calling an iterative solver
            69 MiB given to the printing process from OS
             0 MiB allocation reported by mallinfo(arena+hblkhd)
         13862 MiB available memory on the node where the printing process lives
------------------
     ethr =  1.00E-02,  avg # of iterations =  7.6

     Threshold (ethr) on eigenvalues was too large:
     Diagonalizing with lowered threshold

     Davidson diagonalization with overlap

---- Real-time Memory Report at c_bands before calling an iterative solver
            70 MiB given to the printing process from OS
             0 MiB allocation reported by mallinfo(arena+hblkhd)
         13859 MiB available memory on the node where the printing process lives
------------------
     ethr =  5.42E-04,  avg # of iterations =  1.9

     total cpu time spent up to now is        0.7 secs

     total energy              =    -151.14247367 Ry
     estimated scf accuracy    <       0.08318034 Ry

     iteration #  2     ecut=    60.00 Ry     beta= 0.70
     Davidson diagonalization with overlap

---- Real-time Memory Report at c_bands before calling an iterative solver
            71 MiB given to the printing process from OS
             0 MiB allocation reported by mallinfo(arena+hblkhd)
         13852 MiB available memory on the node where the printing process lives
------------------
     ethr =  5.20E-04,  avg # of iterations =  2.2

     total cpu time spent up to now is        0.9 secs

     total energy              =    -151.15929471 Ry
     estimated scf accuracy    <       0.01258337 Ry

     iteration #  3     ecut=    60.00 Ry     beta= 0.70
     Davidson diagonalization with overlap

---- Real-time Memory Report at c_bands before calling an iterative solver
            71 MiB given to the printing process from OS
             0 MiB allocation reported by mallinfo(arena+hblkhd)
         13852 MiB available memory on the node where the printing process lives
------------------
     ethr =  7.86E-05,  avg # of iterations =  2.9

     total cpu time spent up to now is        1.0 secs

     total energy              =    -151.16151220 Ry
     estimated scf accuracy    <       0.00048951 Ry

     iteration #  4     ecut=    60.00 Ry     beta= 0.70
     Davidson diagonalization with overlap

---- Real-time Memory Report at c_bands before calling an iterative solver
            72 MiB given to the printing process from OS
             0 MiB allocation reported by mallinfo(arena+hblkhd)
         13852 MiB available memory on the node where the printing process lives
------------------
     ethr =  3.06E-06,  avg # of iterations =  4.3

     total cpu time spent up to now is        1.2 secs

     total energy              =    -151.16153519 Ry
     estimated scf accuracy    <       0.00000408 Ry

     iteration #  5     ecut=    60.00 Ry     beta= 0.70
     Davidson diagonalization with overlap

---- Real-time Memory Report at c_bands before calling an iterative solver
            72 MiB given to the printing process from OS
             0 MiB allocation reported by mallinfo(arena+hblkhd)
         13850 MiB available memory on the node where the printing process lives
------------------
     ethr =  2.55E-08,  avg # of iterations =  2.0

     total cpu time spent up to now is        1.3 secs

     total energy              =    -151.16153660 Ry
     estimated scf accuracy    <       0.00000010 Ry

     iteration #  6     ecut=    60.00 Ry     beta= 0.70
     Davidson diagonalization with overlap

---- Real-time Memory Report at c_bands before calling an iterative solver
            72 MiB given to the printing process from OS
             0 MiB allocation reported by mallinfo(arena+hblkhd)
         13850 MiB available memory on the node where the printing process lives
------------------
     ethr =  6.07E-10,  avg # of iterations =  2.0

     total cpu time spent up to now is        1.4 secs

     End of self-consistent calculation

          k = 0.0000 0.0000 0.0000 (  2421 PWs)   bands (ev):

   -96.9288 -58.4190 -58.4190 -58.4190  -5.8860   5.9772   5.9772   5.9772
     8.0138  10.2533  10.2533  10.2533  14.8592  15.0551  15.0551  17.4336

     occupation numbers 
     1.0000   1.0000   1.0000   1.0000   1.0000   1.0000   1.0000   1.0000
     0.0000   0.0000   0.0000   0.0000   0.0000   0.0000   0.0000   0.0000

          k =-0.1667 0.1667-0.1667 (  2397 PWs)   bands (ev):

   -96.9280 -58.4191 -58.4191 -58.4191  -5.6174   3.8763   5.7123   5.7123
     8.7860  10.6926  10.6926  11.1649  14.2542  14.2542  15.7275  17.0315

     occupation numbers 
     1.0000   1.0000   1.0000   1.0000   1.0000   1.0000   1.0000   1.0000
     0.0000   0.0000   0.0000   0.0000   0.0000   0.0000   0.0000   0.0000

          k =-0.3333 0.3333-0.3333 (  2424 PWs)   bands (ev):

   -96.9290 -58.4193 -58.4191 -58.4191  -4.9374   1.4789   5.3100   5.3100
     8.3327  10.8359  10.8359  13.4698  15.0678  15.0678  15.3527  19.9499

     occupation numbers 
     1.0000   1.0000   1.0000   1.0000   1.0000   1.0000   1.0000   1.0000
     0.0000   0.0000   0.0000   0.0000   0.0000   0.0000   0.0000   0.0000

          k = 0.5000-0.5000 0.5000 (  2392 PWs)   bands (ev):

   -96.9281 -58.4193 -58.4191 -58.4191  -4.4633   0.3988   5.1479   5.1479
     8.1071  10.6554  10.6554  13.7261  17.1604  17.6056  17.6059  18.1457

     occupation numbers 
     1.0000   1.0000   1.0000   1.0000   1.0000   1.0000   1.0000   1.0000
     0.0000   0.0000   0.0000   0.0000   0.0000   0.0000   0.0000   0.0000

          k = 0.0000 0.3333 0.0000 (  2405 PWs)   bands (ev):

   -96.9282 -58.4191 -58.4191 -58.4191  -5.5266   3.9693   5.1896   5.1896
     9.2516   9.8987  11.5919  11.5919  12.9306  15.5479  16.6584  18.2936

     occupation numbers 
     1.0000   1.0000   1.0000   1.0000   1.0000   1.0000   1.0000   1.0000
     0.0000   0.0000   0.0000   0.0000   0.0000   0.0000   0.0000   0.0000

          k =-0.1667 0.5000-0.1667 (  2398 PWs)   bands (ev):

   -96.9282 -58.4192 -58.4191 -58.4191  -4.9720   2.1280   4.5429   4.7428
     9.0553  10.4772  11.5393  12.1960  14.7791  16.1881  17.0523  19.3242

     occupation numbers 
     1.0000   1.0000   1.0000   1.0000   1.0000   1.0000   1.0000   1.0000
     0.0000   0.0000   0.0000   0.0000   0.0000   0.0000   0.0000   0.0000

          k = 0.6667-0.3333 0.6667 (  2390 PWs)   bands (ev):

   -96.9281 -58.4193 -58.4191 -58.4191  -4.3562   0.7066   3.8593   4.7083
     8.9362  10.7548  11.7596  13.1108  15.6802  17.4478  17.9032  18.7758

     occupation numbers 
     1.0000   1.0000   1.0000   1.0000   1.0000   1.0000   1.0000   1.0000
     0.0000   0.0000   0.0000   0.0000   0.0000   0.0000   0.0000   0.0000

          k = 0.5000-0.1667 0.5000 (  2407 PWs)   bands (ev):

   -96.9286 -58.4193 -58.4191 -58.4191  -4.5248   1.0577   3.6525   5.0918
     9.2522  10.8431  11.4197  13.4325  14.4527  16.0561  17.6756  19.3194

     occupation numbers 
     1.0000   1.0000   1.0000   1.0000   1.0000   1.0000   1.0000   1.0000
     0.0000   0.0000   0.0000   0.0000   0.0000   0.0000   0.0000   0.0000

          k = 0.3333 0.0000 0.3333 (  2403 PWs)   bands (ev):

   -96.9283 -58.4192 -58.4191 -58.4191  -5.2035   2.6646   4.2893   5.6341
     9.6385  10.7331  10.9571  11.8806  13.2739  15.5694  17.4043  17.9093

     occupation numbers 
     1.0000   1.0000   1.0000   1.0000   1.0000   1.0000   1.0000   1.0000
     0.0000   0.0000   0.0000   0.0000   0.0000   0.0000   0.0000   0.0000

          k = 0.0000 0.6667 0.0000 (  2397 PWs)   bands (ev):

   -96.9283 -58.4193 -58.4191 -58.4191  -4.5975   1.6830   4.1788   4.1788
     7.9577   8.9734  14.1553  14.1553  14.9963  17.0206  19.6724  20.4198

     occupation numbers 
     1.0000   1.0000   1.0000   1.0000   1.0000   1.0000   1.0000   1.0000
     0.0000   0.0000   0.0000   0.0000   0.0000   0.0000   0.0000   0.0000

          k = 0.8333-0.1667 0.8333 (  2398 PWs)   bands (ev):

   -96.9283 -58.4193 -58.4192 -58.4191  -4.0866   0.8831   3.1778   4.0576
     8.0603   9.6989  13.9291  14.2973  16.7261  17.6791  19.1007  19.4536

     occupation numbers 
     1.0000   1.0000   1.0000   1.0000   1.0000   1.0000   1.0000   1.0000
     0.0000   0.0000   0.0000   0.0000   0.0000   0.0000   0.0000   0.0000

          k = 0.6667-0.0000 0.6667 (  2381 PWs)   bands (ev):

   -96.9278 -58.4193 -58.4192 -58.4191  -4.0493   0.9149   2.4480   4.4356
     8.5647  12.3164  13.2869  13.5949  13.9181  14.9345  20.3507  20.7526

     occupation numbers 
     1.0000   1.0000   1.0000   1.0000   1.0000   1.0000   1.0000   1.0000
     0.0000   0.0000   0.0000   0.0000   0.0000   0.0000   0.0000   0.0000

          k = 0.0000-1.0000 0.0000 (  2402 PWs)   bands (ev):

   -96.9284 -58.4193 -58.4192 -58.4192  -3.9116   0.5392   3.7967   3.7967
     7.4012   8.2657  16.3107  16.3107  17.7173  18.6731  18.6731  19.1437

     occupation numbers 
     1.0000   1.0000   1.0000   1.0000   1.0000   1.0000   1.0000   1.0000
     0.0000   0.0000   0.0000   0.0000   0.0000   0.0000   0.0000   0.0000

          k = 0.6667-0.3333 1.0000 (  2399 PWs)   bands (ev):

   -96.9283 -58.4193 -58.4192 -58.4191  -4.4105   1.3319   3.2499   4.3235
     9.6420  10.5217  11.1322  13.9107  15.2637  16.7239  19.0484  19.9603

     occupation numbers 
     1.0000   1.0000   1.0000   1.0000   1.0000   1.0000   1.0000   1.0000
     0.0000   0.0000   0.0000   0.0000   0.0000   0.0000   0.0000   0.0000

          k = 0.5000-0.1667 0.8333 (  2396 PWs)   bands (ev):

   -96.9282 -58.4193 -58.4192 -58.4191  -4.0489   0.8460   2.7983   3.9432
     9.9113  10.5576  12.6868  13.4021  14.3466  17.5056  18.8392  19.5402

     occupation numbers 
     1.0000   1.0000   1.0000   1.0000   1.0000   1.0000   1.0000   1.0000
     0.0000   0.0000   0.0000   0.0000   0.0000   0.0000   0.0000   0.0000

          k =-0.3333-1.0000 0.0000 (  2402 PWs)   bands (ev):

   -96.9284 -58.4193 -58.4192 -58.4192  -3.8875   0.7759   3.0358   3.2795
     9.1437  10.0901  13.1041  13.8149  16.5872  18.3713  18.5895  19.9060

     occupation numbers 
     1.0000   1.0000   1.0000   1.0000   1.0000   1.0000   1.0000   1.0000
     0.0000   0.0000   0.0000   0.0000   0.0000   0.0000   0.0000   0.0000

     highest occupied, lowest unoccupied level (ev):     5.9772    7.4012

!    total energy              =    -151.16153663 Ry
     estimated scf accuracy    <          3.0E-09 Ry

     convergence has been achieved in   6 iterations

     Using ACE for calculation of exact exchange

     EXX grid:    19195 G-vectors     FFT dimensions: (  40,  40,  40)
     ACE projected onto    16 (nbndproj) and applied to    16 (nbnd) bands

     EXX: now go back to refine exchange calculation

     total cpu time spent up to now is      240.8 secs

     Self-consistent Calculation

     iteration #  1     ecut=    60.00 Ry     beta= 0.70
     Davidson diagonalization with overlap

---- Real-time Memory Report at c_bands before calling an iterative solver
          1060 MiB given to the printing process from OS
             0 MiB allocation reported by mallinfo(arena+hblkhd)
          9927 MiB available memory on the node where the printing process lives
------------------
     ethr =  6.07E-10,  avg # of iterations =  6.2

     total cpu time spent up to now is      241.1 secs

     total energy              =    -151.18730747 Ry
     estimated scf accuracy    <       0.00015286 Ry

     iteration #  2     ecut=    60.00 Ry     beta= 0.70
     Davidson diagonalization with overlap

---- Real-time Memory Report at c_bands before calling an iterative solver
          1060 MiB given to the printing process from OS
             0 MiB allocation reported by mallinfo(arena+hblkhd)
          9925 MiB available memory on the node where the printing process lives
------------------
     ethr =  9.55E-07,  avg # of iterations =  2.0

     total cpu time spent up to now is      241.3 secs

     total energy              =    -151.18733830 Ry
     estimated scf accuracy    <       0.00001851 Ry

     iteration #  3     ecut=    60.00 Ry     beta= 0.70
     Davidson diagonalization with overlap

---- Real-time Memory Report at c_bands before calling an iterative solver
          1060 MiB given to the printing process from OS
             0 MiB allocation reported by mallinfo(arena+hblkhd)
          9925 MiB available memory on the node where the printing process lives
------------------
     ethr =  1.16E-07,  avg # of iterations =  1.9

     total cpu time spent up to now is      241.4 secs

     total energy              =    -151.18734163 Ry
     estimated scf accuracy    <       0.00000074 Ry

     iteration #  4     ecut=    60.00 Ry     beta= 0.70
     Davidson diagonalization with overlap

---- Real-time Memory Report at c_bands before calling an iterative solver
          1060 MiB given to the printing process from OS
             0 MiB allocation reported by mallinfo(arena+hblkhd)
          9924 MiB available memory on the node where the printing process lives
------------------
     ethr =  4.64E-09,  avg # of iterations =  1.2

     total cpu time spent up to now is      241.5 secs

     End of self-consistent calculation

          k = 0.0000 0.0000 0.0000 (  2421 PWs)   bands (ev):

  -103.2210 -61.1419 -61.1419 -61.1419  -7.1027   5.6081   5.6081   5.6081
     8.3096  10.7064  10.7065  10.7065  15.3324  15.5968  15.5968  17.9847

     occupation numbers 
     1.0000   1.0000   1.0000   1.0000   1.0000   1.0000   1.0000   1.0000
     0.0000   0.0000   0.0000   0.0000   0.0000   0.0000   0.0000   0.0000

          k =-0.1667 0.1667-0.1667 (  2397 PWs)   bands (ev):

  -103.2192 -61.1422 -61.1415 -61.1415  -6.8169   3.3781   5.3289   5.3289
     9.1261  11.1689  11.1689  11.6162  14.7537  14.7537  16.2363  17.5758

     occupation numbers 
     1.0000   1.0000   1.0000   1.0000   1.0000   1.0000   1.0000   1.0000
     0.0000   0.0000   0.0000   0.0000   0.0000   0.0000   0.0000   0.0000

          k =-0.3333 0.3333-0.3333 (  2424 PWs)   bands (ev):

  -103.2212 -61.1423 -61.1420 -61.1420  -6.0877   0.7891   4.9030   4.9030
     8.6433  11.2908  11.2908  13.9888  15.6262  15.6262  15.8617  20.6972

     occupation numbers 
     1.0000   1.0000   1.0000   1.0000   1.0000   1.0000   1.0000   1.0000
     0.0000   0.0000   0.0000   0.0000   0.0000   0.0000   0.0000   0.0000

          k = 0.5000-0.5000 0.5000 (  2392 PWs)   bands (ev):

  -103.2193 -61.1426 -61.1417 -61.1417  -5.5829  -0.3740   4.7297   4.7297
     8.4012  11.0894  11.0895  14.1813  17.7787  18.2667  18.2676  18.8238

     occupation numbers 
     1.0000   1.0000   1.0000   1.0000   1.0000   1.0000   1.0000   1.0000
     0.0000   0.0000   0.0000   0.0000   0.0000   0.0000   0.0000   0.0000

          k = 0.0000 0.3333 0.0000 (  2405 PWs)   bands (ev):

  -103.2192 -61.1423 -61.1414 -61.1414  -6.7202   3.4802   4.7756   4.7756
     9.6203  10.2844  12.1111  12.1111  13.3669  16.1114  17.2336  18.8654

     occupation numbers 
     1.0000   1.0000   1.0000   1.0000   1.0000   1.0000   1.0000   1.0000
     0.0000   0.0000   0.0000   0.0000   0.0000   0.0000   0.0000   0.0000

          k =-0.1667 0.5000-0.1667 (  2398 PWs)   bands (ev):

  -103.2194 -61.1422 -61.1418 -61.1417  -6.1262   1.4883   4.0907   4.2993
     9.3932  10.9212  11.9704  12.7276  15.3712  16.7834  17.6070  19.9955

     occupation numbers 
     1.0000   1.0000   1.0000   1.0000   1.0000   1.0000   1.0000   1.0000
     0.0000   0.0000   0.0000   0.0000   0.0000   0.0000   0.0000   0.0000

          k = 0.6667-0.3333 0.6667 (  2390 PWs)   bands (ev):

  -103.2190 -61.1426 -61.1417 -61.1415  -5.4676  -0.0451   3.3592   4.2623
     9.2680  11.1786  12.2503  13.6443  16.2373  18.1068  18.5191  19.4743

     occupation numbers 
     1.0000   1.0000   1.0000   1.0000   1.0000   1.0000   1.0000   1.0000
     0.0000   0.0000   0.0000   0.0000   0.0000   0.0000   0.0000   0.0000

          k = 0.5000-0.1667 0.5000 (  2407 PWs)   bands (ev):

  -103.2198 -61.1424 -61.1419 -61.1417  -5.6475   0.3335   3.1362   4.6702
     9.6117  11.2569  11.9098  13.9801  14.9888  16.6630  18.2668  20.0665

     occupation numbers 
     1.0000   1.0000   1.0000   1.0000   1.0000   1.0000   1.0000   1.0000
     0.0000   0.0000   0.0000   0.0000   0.0000   0.0000   0.0000   0.0000

          k = 0.3333 0.0000 0.3333 (  2403 PWs)   bands (ev):

  -103.2192 -61.1423 -61.1416 -61.1414  -6.3746   2.0691   3.8177   5.2442
    10.0445  11.1409  11.4596  12.3524  13.7273  16.1554  18.0313  18.4693

     occupation numbers 
     1.0000   1.0000   1.0000   1.0000   1.0000   1.0000   1.0000   1.0000
     0.0000   0.0000   0.0000   0.0000   0.0000   0.0000   0.0000   0.0000

          k = 0.0000 0.6667 0.0000 (  2397 PWs)   bands (ev):

  -103.2205 -61.1423 -61.1422 -61.1422  -5.7227   1.0027   3.6974   3.6974
     8.2403   9.2891  14.7951  14.7951  15.5970  17.6338  20.3891  21.1134

     occupation numbers 
     1.0000   1.0000   1.0000   1.0000   1.0000   1.0000   1.0000   1.0000
     0.0000   0.0000   0.0000   0.0000   0.0000   0.0000   0.0000   0.0000

          k = 0.8333-0.1667 0.8333 (  2398 PWs)   bands (ev):

  -103.2195 -61.1425 -61.1419 -61.1418  -5.1767   0.1364   2.6295   3.5683
     8.3417  10.0599  14.5283  14.9136  17.4075  18.3468  19.8844  20.1748

     occupation numbers 
     1.0000   1.0000   1.0000   1.0000   1.0000   1.0000   1.0000   1.0000
     0.0000   0.0000   0.0000   0.0000   0.0000   0.0000   0.0000   0.0000

          k = 0.6667-0.0000 0.6667 (  2381 PWs)   bands (ev):

  -103.2200 -61.1423 -61.1423 -61.1422  -5.1334   0.1691   1.8439   3.9723
     8.8713  12.7945  13.8749  14.1797  14.5038  15.4759  20.9727  21.4082

     occupation numbers 
     1.0000   1.0000   1.0000   1.0000   1.0000   1.0000   1.0000   1.0000
     0.0000   0.0000   0.0000   0.0000   0.0000   0.0000   0.0000   0.0000

          k = 0.0000-1.0000 0.0000 (  2402 PWs)   bands (ev):

  -103.2193 -61.1427 -61.1417 -61.1417  -4.9896  -0.2365   3.2896   3.2896
     7.6549   8.5471  17.0544  17.0544  18.4223  19.3768  19.3768  19.8312

     occupation numbers 
     1.0000   1.0000   1.0000   1.0000   1.0000   1.0000   1.0000   1.0000
     0.0000   0.0000   0.0000   0.0000   0.0000   0.0000   0.0000   0.0000

          k = 0.6667-0.3333 1.0000 (  2399 PWs)   bands (ev):

  -103.2193 -61.1425 -61.1417 -61.1416  -5.5251   0.6252   2.7045   3.8546
    10.0037  10.9496  11.5682  14.5205  15.8554  17.3891  19.6930  20.7021

     occupation numbers 
     1.0000   1.0000   1.0000   1.0000   1.0000   1.0000   1.0000   1.0000
     0.0000   0.0000   0.0000   0.0000   0.0000   0.0000   0.0000   0.0000

          k = 0.5000-0.1667 0.8333 (  2396 PWs)   bands (ev):

  -103.2195 -61.1424 -61.1419 -61.1418  -5.1358   0.0973   2.2191   3.4505
    10.2720  10.9876  13.2231  13.9319  14.9602  18.1633  19.5796  20.1535

     occupation numbers 
     1.0000   1.0000   1.0000   1.0000   1.0000   1.0000   1.0000   1.0000
     0.0000   0.0000   0.0000   0.0000   0.0000   0.0000   0.0000   0.0000

          k =-0.3333-1.0000 0.0000 (  2402 PWs)   bands (ev):

  -103.2194 -61.1426 -61.1418 -61.1417  -4.9631   0.0169   2.4729   2.7465
     9.4739  10.4762  13.6631  14.3859  17.2895  19.1436  19.2765  20.6546

     occupation numbers 
     1.0000   1.0000   1.0000   1.0000   1.0000   1.0000   1.0000   1.0000
     0.0000   0.0000   0.0000   0.0000   0.0000   0.0000   0.0000   0.0000

     highest occupied, lowest unoccupied level (ev):     5.6081    7.6549

!    total energy              =    -151.18734169 Ry
     estimated scf accuracy    <          3.7E-09 Ry

     convergence has been achieved in   4 iterations

     Using ACE for calculation of exact exchange
     ACE projected onto    16 (nbndproj) and applied to    16 (nbnd) bands

     total energy              =    -151.18741442 Ry
     Harris-Foulkes estimate   =    -151.18741441 Ry
     est. exchange err (dexx)  =       0.00007273 Ry
     - averaged Fock potential =       8.02205583 Ry
     + Fock energy (ACE)       =      -4.01231654 Ry

     EXX: now go back to refine exchange calculation

     total cpu time spent up to now is      481.6 secs

     Self-consistent Calculation

     iteration #  1     ecut=    60.00 Ry     beta= 0.70
     Davidson diagonalization with overlap

---- Real-time Memory Report at c_bands before calling an iterative solver
          1060 MiB given to the printing process from OS
             0 MiB allocation reported by mallinfo(arena+hblkhd)
          9932 MiB available memory on the node where the printing process lives
------------------
     ethr =  4.64E-09,  avg # of iterations =  3.0

     total cpu time spent up to now is      481.7 secs

     total energy              =    -151.18742025 Ry
     estimated scf accuracy    <       0.00000158 Ry

     iteration #  2     ecut=    60.00 Ry     beta= 0.70
     Davidson diagonalization with overlap

---- Real-time Memory Report at c_bands before calling an iterative solver
          1060 MiB given to the printing process from OS
             0 MiB allocation reported by mallinfo(arena+hblkhd)
          9924 MiB available memory on the node where the printing process lives
------------------
     ethr =  9.85E-09,  avg # of iterations =  2.0

     total cpu time spent up to now is      481.9 secs

     total energy              =    -151.18742053 Ry
     estimated scf accuracy    <       0.00000018 Ry

     iteration #  3     ecut=    60.00 Ry     beta= 0.70
     Davidson diagonalization with overlap

---- Real-time Memory Report at c_bands before calling an iterative solver
          1060 MiB given to the printing process from OS
             0 MiB allocation reported by mallinfo(arena+hblkhd)
          9923 MiB available memory on the node where the printing process lives
------------------
     ethr =  1.14E-09,  avg # of iterations =  2.0

     total cpu time spent up to now is      482.0 secs

     End of self-consistent calculation

          k = 0.0000 0.0000 0.0000 (  2421 PWs)   bands (ev):

  -103.2239 -61.1521 -61.1521 -61.1521  -7.1012   5.5999   5.5999   5.5999
     8.3242  10.7107  10.7107  10.7107  15.3366  15.5957  15.5957  17.9864

     occupation numbers 
     1.0000   1.0000   1.0000   1.0000   1.0000   1.0000   1.0000   1.0000
     0.0000   0.0000   0.0000   0.0000   0.0000   0.0000   0.0000   0.0000

          k =-0.1667 0.1667-0.1667 (  2397 PWs)   bands (ev):

  -103.2222 -61.1524 -61.1518 -61.1518  -6.8153   3.3778   5.3217   5.3217
     9.1362  11.1722  11.1722  11.6190  14.7531  14.7531  16.2392  17.5781

     occupation numbers 
     1.0000   1.0000   1.0000   1.0000   1.0000   1.0000   1.0000   1.0000
     0.0000   0.0000   0.0000   0.0000   0.0000   0.0000   0.0000   0.0000

          k =-0.3333 0.3333-0.3333 (  2424 PWs)   bands (ev):

  -103.2241 -61.1526 -61.1523 -61.1523  -6.0867   0.7906   4.8966   4.8966
     8.6529  11.2936  11.2936  13.9914  15.6258  15.6258  15.8642  20.6989

     occupation numbers 
     1.0000   1.0000   1.0000   1.0000   1.0000   1.0000   1.0000   1.0000
     0.0000   0.0000   0.0000   0.0000   0.0000   0.0000   0.0000   0.0000

          k = 0.5000-0.5000 0.5000 (  2392 PWs)   bands (ev):

  -103.2223 -61.1528 -61.1520 -61.1520  -5.5819  -0.3720   4.7235   4.7235
     8.4110  11.0921  11.0921  14.1841  17.7810  18.2673  18.2678  18.8224

     occupation numbers 
     1.0000   1.0000   1.0000   1.0000   1.0000   1.0000   1.0000   1.0000
     0.0000   0.0000   0.0000   0.0000   0.0000   0.0000   0.0000   0.0000

          k = 0.0000 0.3333 0.0000 (  2405 PWs)   bands (ev):

  -103.2222 -61.1525 -61.1517 -61.1517  -6.7186   3.4803   4.7700   4.7700
     9.6257  10.2913  12.1129  12.1129  13.3672  16.1101  17.2366  18.8668

     occupation numbers 
     1.0000   1.0000   1.0000   1.0000   1.0000   1.0000   1.0000   1.0000
     0.0000   0.0000   0.0000   0.0000   0.0000   0.0000   0.0000   0.0000

          k =-0.1667 0.5000-0.1667 (  2398 PWs)   bands (ev):

  -103.2224 -61.1525 -61.1521 -61.1520  -6.1249   1.4895   4.0878   4.2944
     9.3983  10.9262  11.9713  12.7288  15.3728  16.7828  17.6086  19.9970

     occupation numbers 
     1.0000   1.0000   1.0000   1.0000   1.0000   1.0000   1.0000   1.0000
     0.0000   0.0000   0.0000   0.0000   0.0000   0.0000   0.0000   0.0000

          k = 0.6667-0.3333 0.6667 (  2390 PWs)   bands (ev):

  -103.2220 -61.1528 -61.1520 -61.1519  -5.4666  -0.0431   3.3578   4.2572
     9.2736  11.1812  12.2517  13.6459  16.2390  18.1069  18.5207  19.4733

     occupation numbers 
     1.0000   1.0000   1.0000   1.0000   1.0000   1.0000   1.0000   1.0000
     0.0000   0.0000   0.0000   0.0000   0.0000   0.0000   0.0000   0.0000

          k = 0.5000-0.1667 0.5000 (  2407 PWs)   bands (ev):

  -103.2228 -61.1526 -61.1522 -61.1520  -5.6465   0.3353   3.1350   4.6644
     9.6179  11.2588  11.9119  13.9821  14.9882  16.6650  18.2676  20.0657

     occupation numbers 
     1.0000   1.0000   1.0000   1.0000   1.0000   1.0000   1.0000   1.0000
     0.0000   0.0000   0.0000   0.0000   0.0000   0.0000   0.0000   0.0000

          k = 0.3333 0.0000 0.3333 (  2403 PWs)   bands (ev):

  -103.2223 -61.1526 -61.1519 -61.1517  -6.3732   2.0700   3.8154   5.2372
    10.0525  11.1421  11.4631  12.3545  13.7264  16.1564  18.0333  18.4698

     occupation numbers 
     1.0000   1.0000   1.0000   1.0000   1.0000   1.0000   1.0000   1.0000
     0.0000   0.0000   0.0000   0.0000   0.0000   0.0000   0.0000   0.0000

          k = 0.0000 0.6667 0.0000 (  2397 PWs)   bands (ev):

  -103.2234 -61.1525 -61.1524 -61.1524  -5.7219   1.0043   3.6931   3.6931
     8.2465   9.2938  14.7963  14.7963  15.5994  17.6328  20.3910  21.1132

     occupation numbers 
     1.0000   1.0000   1.0000   1.0000   1.0000   1.0000   1.0000   1.0000
     0.0000   0.0000   0.0000   0.0000   0.0000   0.0000   0.0000   0.0000

          k = 0.8333-0.1667 0.8333 (  2398 PWs)   bands (ev):

  -103.2226 -61.1527 -61.1522 -61.1521  -5.1759   0.1384   2.6282   3.5641
     8.3470  10.0626  14.5304  14.9148  17.4100  18.3468  19.8848  20.1733

     occupation numbers 
     1.0000   1.0000   1.0000   1.0000   1.0000   1.0000   1.0000   1.0000
     0.0000   0.0000   0.0000   0.0000   0.0000   0.0000   0.0000   0.0000

          k = 0.6667-0.0000 0.6667 (  2381 PWs)   bands (ev):

  -103.2229 -61.1526 -61.1526 -61.1524  -5.1331   0.1714   1.8436   3.9676
     8.8768  12.7954  13.8768  14.1814  14.5064  15.4747  20.9733  21.4072

     occupation numbers 
     1.0000   1.0000   1.0000   1.0000   1.0000   1.0000   1.0000   1.0000
     0.0000   0.0000   0.0000   0.0000   0.0000   0.0000   0.0000   0.0000

          k = 0.0000-1.0000 0.0000 (  2402 PWs)   bands (ev):

  -103.2224 -61.1529 -61.1520 -61.1520  -4.9888  -0.2343   3.2856   3.2856
     7.6608   8.5522  17.0576  17.0576  18.4257  19.3744  19.3744  19.8317

     occupation numbers 
     1.0000   1.0000   1.0000   1.0000   1.0000   1.0000   1.0000   1.0000
     0.0000   0.0000   0.0000   0.0000   0.0000   0.0000   0.0000   0.0000

          k = 0.6667-0.3333 1.0000 (  2399 PWs)   bands (ev):

  -103.2223 -61.1527 -61.1520 -61.1520  -5.5241   0.6270   2.7033   3.8514
    10.0062  10.9535  11.5700  14.5217  15.8564  17.3904  19.6936  20.7007

     occupation numbers 
     1.0000   1.0000   1.0000   1.0000   1.0000   1.0000   1.0000   1.0000
     0.0000   0.0000   0.0000   0.0000   0.0000   0.0000   0.0000   0.0000

          k = 0.5000-0.1667 0.8333 (  2396 PWs)   bands (ev):

  -103.2225 -61.1526 -61.1522 -61.1522  -5.1351   0.0995   2.2185   3.4481
    10.2740  10.9907  13.2253  13.9325  14.9616  18.1645  19.5788  20.1542

     occupation numbers 
     1.0000   1.0000   1.0000   1.0000   1.0000   1.0000   1.0000   1.0000
     0.0000   0.0000   0.0000   0.0000   0.0000   0.0000   0.0000   0.0000

          k =-0.3333-1.0000 0.0000 (  2402 PWs)   bands (ev):

  -103.2224 -61.1528 -61.1521 -61.1520  -4.9625   0.0191   2.4712   2.7455
     9.4762  10.4789  13.6653  14.3872  17.2916  19.1426  19.2780  20.6536

     occupation numbers 
     1.0000   1.0000   1.0000   1.0000   1.0000   1.0000   1.0000   1.0000
     0.0000   0.0000   0.0000   0.0000   0.0000   0.0000   0.0000   0.0000

     highest occupied, lowest unoccupied level (ev):     5.5999    7.6608

!    total energy              =    -151.18742056 Ry
     estimated scf accuracy    <          8.6E-09 Ry

     convergence has been achieved in   3 iterations

     Using ACE for calculation of exact exchange
     ACE projected onto    16 (nbndproj) and applied to    16 (nbnd) bands

     total energy              =    -151.18742119 Ry
     Harris-Foulkes estimate   =    -151.18742119 Ry
     est. exchange err (dexx)  =       0.00000062 Ry
     - averaged Fock potential =       8.02490621 Ry
     + Fock energy (ACE)       =      -4.01259029 Ry

     EXX: now go back to refine exchange calculation

     total cpu time spent up to now is      721.3 secs

     Self-consistent Calculation

     iteration #  1     ecut=    60.00 Ry     beta= 0.70
     Davidson diagonalization with overlap

---- Real-time Memory Report at c_bands before calling an iterative solver
          1060 MiB given to the printing process from OS
             0 MiB allocation reported by mallinfo(arena+hblkhd)
          9932 MiB available memory on the node where the printing process lives
------------------
     ethr =  1.14E-09,  avg # of iterations =  2.2

     Threshold (ethr) on eigenvalues was too large:
     Diagonalizing with lowered threshold

     Davidson diagonalization with overlap

---- Real-time Memory Report at c_bands before calling an iterative solver
          1060 MiB given to the printing process from OS
             0 MiB allocation reported by mallinfo(arena+hblkhd)
          9931 MiB available memory on the node where the printing process lives
------------------
     ethr =  8.43E-11,  avg # of iterations =  1.0

     total cpu time spent up to now is      721.5 secs

     total energy              =    -151.18742125 Ry
     estimated scf accuracy    <       0.00000001 Ry

     iteration #  2     ecut=    60.00 Ry     beta= 0.70
     Davidson diagonalization with overlap

---- Real-time Memory Report at c_bands before calling an iterative solver
          1060 MiB given to the printing process from OS
             0 MiB allocation reported by mallinfo(arena+hblkhd)
          9927 MiB available memory on the node where the printing process lives
------------------
     ethr =  8.47E-11,  avg # of iterations =  2.0

     total cpu time spent up to now is      721.6 secs

     End of self-consistent calculation

          k = 0.0000 0.0000 0.0000 (  2421 PWs)   bands (ev):

  -103.2246 -61.1534 -61.1534 -61.1534  -7.1008   5.5992   5.5992   5.5992
     8.3259  10.7112  10.7112  10.7112  15.3371  15.5956  15.5956  17.9867

     occupation numbers 
     1.0000   1.0000   1.0000   1.0000   1.0000   1.0000   1.0000   1.0000
     0.0000   0.0000   0.0000   0.0000   0.0000   0.0000   0.0000   0.0000

          k =-0.1667 0.1667-0.1667 (  2397 PWs)   bands (ev):

  -103.2230 -61.1537 -61.1531 -61.1531  -6.8150   3.3779   5.3211   5.3211
     9.1374  11.1726  11.1726  11.6194  14.7531  14.7531  16.2395  17.5784

     occupation numbers 
     1.0000   1.0000   1.0000   1.0000   1.0000   1.0000   1.0000   1.0000
     0.0000   0.0000   0.0000   0.0000   0.0000   0.0000   0.0000   0.0000

          k =-0.3333 0.3333-0.3333 (  2424 PWs)   bands (ev):

  -103.2249 -61.1538 -61.1535 -61.1535  -6.0864   0.7909   4.8961   4.8961
     8.6540  11.2940  11.2940  13.9919  15.6258  15.6258  15.8646  20.6992

     occupation numbers 
     1.0000   1.0000   1.0000   1.0000   1.0000   1.0000   1.0000   1.0000
     0.0000   0.0000   0.0000   0.0000   0.0000   0.0000   0.0000   0.0000

          k = 0.5000-0.5000 0.5000 (  2392 PWs)   bands (ev):

  -103.2231 -61.1541 -61.1532 -61.1532  -5.5815  -0.3717   4.7230   4.7230
     8.4121  11.0924  11.0924  14.1845  17.7814  18.2674  18.2677  18.8224

     occupation numbers 
     1.0000   1.0000   1.0000   1.0000   1.0000   1.0000   1.0000   1.0000
     0.0000   0.0000   0.0000   0.0000   0.0000   0.0000   0.0000   0.0000

          k = 0.0000 0.3333 0.0000 (  2405 PWs)   bands (ev):

  -103.2230 -61.1538 -61.1530 -61.1530  -6.7183   3.4805   4.7695   4.7695
     9.6263  10.2922  12.1132  12.1132  13.3674  16.1100  17.2370  18.8671

     occupation numbers 
     1.0000   1.0000   1.0000   1.0000   1.0000   1.0000   1.0000   1.0000
     0.0000   0.0000   0.0000   0.0000   0.0000   0.0000   0.0000   0.0000

          k =-0.1667 0.5000-0.1667 (  2398 PWs)   bands (ev):

  -103.2232 -61.1537 -61.1534 -61.1532  -6.1246   1.4898   4.0876   4.2941
     9.3988  10.9269  11.9714  12.7291  15.3731  16.7828  17.6089  19.9972

     occupation numbers 
     1.0000   1.0000   1.0000   1.0000   1.0000   1.0000   1.0000   1.0000
     0.0000   0.0000   0.0000   0.0000   0.0000   0.0000   0.0000   0.0000

          k = 0.6667-0.3333 0.6667 (  2390 PWs)   bands (ev):

  -103.2228 -61.1540 -61.1533 -61.1531  -5.4663  -0.0429   3.3577   4.2568
     9.2743  11.1816  12.2519  13.6462  16.2393  18.1070  18.5209  19.4733

     occupation numbers 
     1.0000   1.0000   1.0000   1.0000   1.0000   1.0000   1.0000   1.0000
     0.0000   0.0000   0.0000   0.0000   0.0000   0.0000   0.0000   0.0000

          k = 0.5000-0.1667 0.5000 (  2407 PWs)   bands (ev):

  -103.2235 -61.1538 -61.1534 -61.1532  -5.6461   0.3356   3.1350   4.6640
     9.6187  11.2591  11.9122  13.9825  14.9882  16.6653  18.2678  20.0657

     occupation numbers 
     1.0000   1.0000   1.0000   1.0000   1.0000   1.0000   1.0000   1.0000
     0.0000   0.0000   0.0000   0.0000   0.0000   0.0000   0.0000   0.0000

          k = 0.3333 0.0000 0.3333 (  2403 PWs)   bands (ev):

  -103.2230 -61.1538 -61.1532 -61.1530  -6.3728   2.0703   3.8152   5.2366
    10.0534  11.1423  11.4635  12.3549  13.7264  16.1566  18.0336  18.4700

     occupation numbers 
     1.0000   1.0000   1.0000   1.0000   1.0000   1.0000   1.0000   1.0000
     0.0000   0.0000   0.0000   0.0000   0.0000   0.0000   0.0000   0.0000

          k = 0.0000 0.6667 0.0000 (  2397 PWs)   bands (ev):

  -103.2241 -61.1538 -61.1537 -61.1537  -5.7216   1.0045   3.6928   3.6928
     8.2472   9.2944  14.7965  14.7965  15.5998  17.6328  20.3912  21.1133

     occupation numbers 
     1.0000   1.0000   1.0000   1.0000   1.0000   1.0000   1.0000   1.0000
     0.0000   0.0000   0.0000   0.0000   0.0000   0.0000   0.0000   0.0000

          k = 0.8333-0.1667 0.8333 (  2398 PWs)   bands (ev):

  -103.2233 -61.1540 -61.1534 -61.1533  -5.1756   0.1387   2.6282   3.5638
     8.3477  10.0630  14.5307  14.9150  17.4104  18.3469  19.8850  20.1733

     occupation numbers 
     1.0000   1.0000   1.0000   1.0000   1.0000   1.0000   1.0000   1.0000
     0.0000   0.0000   0.0000   0.0000   0.0000   0.0000   0.0000   0.0000

          k = 0.6667-0.0000 0.6667 (  2381 PWs)   bands (ev):

  -103.2236 -61.1538 -61.1538 -61.1537  -5.1327   0.1717   1.8437   3.9672
     8.8774  12.7956  13.8772  14.1817  14.5068  15.4747  20.9735  21.4072

     occupation numbers 
     1.0000   1.0000   1.0000   1.0000   1.0000   1.0000   1.0000   1.0000
     0.0000   0.0000   0.0000   0.0000   0.0000   0.0000   0.0000   0.0000

          k = 0.0000-1.0000 0.0000 (  2402 PWs)   bands (ev):

  -103.2231 -61.1542 -61.1532 -61.1532  -4.9885  -0.2341   3.2853   3.2853
     7.6615   8.5528  17.0580  17.0580  18.4262  19.3742  19.3742  19.8318

     occupation numbers 
     1.0000   1.0000   1.0000   1.0000   1.0000   1.0000   1.0000   1.0000
     0.0000   0.0000   0.0000   0.0000   0.0000   0.0000   0.0000   0.0000

          k = 0.6667-0.3333 1.0000 (  2399 PWs)   bands (ev):

  -103.2231 -61.1540 -61.1532 -61.1532  -5.5238   0.6273   2.7033   3.8512
    10.0066  10.9541  11.5702  14.5219  15.8566  17.3906  19.6937  20.6997

     occupation numbers 
     1.0000   1.0000   1.0000   1.0000   1.0000   1.0000   1.0000   1.0000
     0.0000   0.0000   0.0000   0.0000   0.0000   0.0000   0.0000   0.0000

          k = 0.5000-0.1667 0.8333 (  2396 PWs)   bands (ev):

  -103.2232 -61.1539 -61.1535 -61.1534  -5.1348   0.0998   2.2186   3.4479
    10.2743  10.9911  13.2256  13.9327  14.9619  18.1647  19.5788  20.1544

     occupation numbers 
     1.0000   1.0000   1.0000   1.0000   1.0000   1.0000   1.0000   1.0000
     0.0000   0.0000   0.0000   0.0000   0.0000   0.0000   0.0000   0.0000

          k =-0.3333-1.0000 0.0000 (  2402 PWs)   bands (ev):

  -103.2232 -61.1540 -61.1534 -61.1532  -4.9621   0.0194   2.4712   2.7455
     9.4766  10.4793  13.6656  14.3874  17.2920  19.1426  19.2782  20.6536

     occupation numbers 
     1.0000   1.0000   1.0000   1.0000   1.0000   1.0000   1.0000   1.0000
     0.0000   0.0000   0.0000   0.0000   0.0000   0.0000   0.0000   0.0000

     highest occupied, lowest unoccupied level (ev):     5.5992    7.6615

!    total energy              =    -151.18742125 Ry
     estimated scf accuracy    <          1.3E-09 Ry

     convergence has been achieved in   2 iterations

     Using ACE for calculation of exact exchange
     ACE projected onto    16 (nbndproj) and applied to    16 (nbnd) bands

!!   total energy              =    -151.18742126 Ry
     Harris-Foulkes estimate   =    -151.18742126 Ry
     est. exchange err (dexx)  =          7.0E-09 Ry
     - averaged Fock potential =       8.02520881 Ry
     + Fock energy (ACE)       =      -4.01261852 Ry

     EXX self-consistency reached

     Writing all to output data dir ./out_qc/alasqc.save/ :
     XML data file, charge density, pseudopotentials, collected wavefunctions

     init_run     :      0.25s CPU      0.25s WALL (       1 calls)
     electrons    :      2.56s CPU      2.74s WALL (       4 calls)

     Called by init_run:
     aceinit0     :      0.00s CPU      0.00s WALL (       1 calls)
     wfcinit      :      0.05s CPU      0.05s WALL (       1 calls)
     wfcinit:wfcr :      0.04s CPU      0.04s WALL (      16 calls)
     potinit      :      0.01s CPU      0.01s WALL (       1 calls)
     hinit0       :      0.18s CPU      0.18s WALL (       1 calls)

     Called by electrons:
     c_bands      :      2.11s CPU      2.26s WALL (      17 calls)
     sum_band     :      0.33s CPU      0.37s WALL (      17 calls)
     v_of_rho     :      0.12s CPU      0.12s WALL (      17 calls)
     v_h          :      0.00s CPU      0.00s WALL (      17 calls)
     v_xc         :      0.11s CPU      0.12s WALL (      17 calls)
     mix_rho      :      0.00s CPU      0.00s WALL (      17 calls)

     Called by c_bands:
     init_us_2    :      0.05s CPU      0.05s WALL (     560 calls)
     cegterg      :      2.02s CPU      2.16s WALL (     272 calls)

     Called by sum_band:
     sum_band:wei :      0.00s CPU      0.00s WALL (      17 calls)
     sum_band:loo :      0.32s CPU      0.36s WALL (      17 calls)
     sum_band:buf :      0.00s CPU      0.00s WALL (     272 calls)
     sum_band:ini :      0.02s CPU      0.03s WALL (     272 calls)

     Called by *egterg:
     cdiaghg      :      0.13s CPU      0.14s WALL (     935 calls)
     cegterg:over :      0.06s CPU      0.07s WALL (     743 calls)
     cegterg:upda :      0.03s CPU      0.03s WALL (     743 calls)
     cegterg:last :      0.05s CPU      0.05s WALL (     618 calls)
     h_psi        :      1.73s CPU      1.85s WALL (    1031 calls)
     g_psi        :      0.01s CPU      0.02s WALL (     743 calls)

     Called by h_psi:
     h_psi:calbec :      0.06s CPU      0.06s WALL (    1031 calls)
     vloc_psi     :      1.61s CPU      1.72s WALL (    1031 calls)
                                        0.00s GPU  (    1031 calls)
     add_vuspsi   :      0.03s CPU      0.03s WALL (    1031 calls)

     General routines
     calbec       :      0.09s CPU      0.10s WALL (    1855 calls)
     fft          :      0.19s CPU      0.19s WALL (     166 calls)
     ffts         :      0.00s CPU      0.00s WALL (      17 calls)
     fftw         :      1.71s CPU      1.84s WALL (   27820 calls)
     fftc         :    636.20s CPU    710.56s WALL ( 7077888 calls)
     fftcw        :      0.19s CPU      0.26s WALL (    3072 calls)

     Parallel routines

     EXX routines
     exx_grid     :      0.00s CPU      0.00s WALL (       1 calls)
     exxinit      :      2.76s CPU      3.80s WALL (       4 calls)
     vexx         :    854.45s CPU    953.73s WALL (      64 calls)
     matcalc      :      0.03s CPU      0.04s WALL (     824 calls)
     aceupdate    :      0.00s CPU      0.00s WALL (      64 calls)
     vexxace      :      0.04s CPU      0.05s WALL (     648 calls)
     aceinit      :    854.45s CPU    953.74s WALL (      64 calls)

     PWSCF        :  14m20.07s CPU  16m 0.64s WALL


   This run was terminated on:  10:29:51  26Jun2026            

=------------------------------------------------------------------------------=
   JOB DONE.
=------------------------------------------------------------------------------=
