
     Program PWSCF v.7.5 starts on 25Jun2026 at 10:18:39 

     This program is part of the open-source Quantum ESPRESSO suite
     for quantum simulation of materials; please cite
         "P. Giannozzi et al., J. Phys.:Condens. Matter 21 395502 (2009);
         "P. Giannozzi et al., J. Phys.:Condens. Matter 29 465901 (2017);
         "P. Giannozzi et al., J. Chem. Phys. 152 154105 (2020);
          URL http://www.quantum-espresso.org", 
     in publications or presentations arising from this work. More details at
     http://www.quantum-espresso.org/quote

     Parallel version (MPI & OpenMP), running on       4 processor cores
     Number of MPI processes:                 4
     Threads/MPI process:                     1

     MPI processes distributed on     1 nodes
     13613 MiB available memory on the printing compute node when the environment starts

     Reading input from nacl.fg.in

     Current dimensions of program PWSCF are:
     Max number of different atomic species (ntypx) = 10
     Max number of k-points (npk) =  40000
     Max angular momentum in pseudopotentials (lmaxx) =  4

     IMPORTANT: XC functional enforced from input :
     Exchange-correlation= HSE
                           (   1   4  12   4   0   0   0)
     EXX-fraction              =        0.25
     Any further DFT definition will be discarded
     Please, verify this is what you really want

     EXX Screening parameter changed:    0.5938000
     EXX fraction changed:   1.00
     DD-RSH-CAM (LMODELHF) semilocal: AEXX, BEXX =   0.3953  0.7775
     DD-RSH-CAM (LMODELHF) enabled
     AEXX =  0.3953   BEXX =  0.7775   mu(bohr^-1) =  0.5938

     R & G space division:  proc/nbgrp/npool/nimage =       4
     Subspace diagonalization in iterative solution of the eigenvalue problem:
     a serial algorithm will be used

     EXX: q-point mesh:     6    6    6
     EXX: setup a grid of 216 q-points centered on each k-point
     (k+q)-points:
   0.0000000   0.0000000   0.0000000         1    1
  -0.1666667   0.1666667  -0.1666667         2    1
  -0.3333333   0.3333333  -0.3333333         3    1
   0.5000000  -0.5000000   0.5000000         4    1
   0.3333333  -0.3333333   0.3333333         3   -1
   0.1666667  -0.1666667   0.1666667         2   -1
   0.1666667   0.1666667   0.1666667         2    3
   0.0000000   0.3333333   0.0000000         5    1
  -0.1666667   0.5000000  -0.1666667         6    1
   0.6666667  -0.3333333   0.6666667         7    1
   0.5000000  -0.1666667   0.5000000         8    1
   0.3333333   0.0000000   0.3333333         9    1
   0.3333333   0.3333333   0.3333333         3    3
   0.1666667   0.5000000   0.1666667         6    3
   0.0000000   0.6666667   0.0000000        10    1
   0.8333333  -0.1666667   0.8333333        11    1
   0.6666667   0.0000000   0.6666667        12    1
   0.5000000   0.1666667   0.5000000         8   -3
  -0.5000000  -0.5000000  -0.5000000         4    3
  -0.6666667  -0.3333333  -0.6666667         7    3
  -0.8333333  -0.1666667  -0.8333333        11    3
   0.0000000  -1.0000000   0.0000000        13    1
   0.8333333   0.1666667   0.8333333        11   -3
   0.6666667   0.3333333   0.6666667         7   -3
  -0.3333333  -0.3333333  -0.3333333         3   -3
  -0.5000000  -0.1666667  -0.5000000         8    3
  -0.6666667   0.0000000  -0.6666667        12   -1
  -0.8333333   0.1666667  -0.8333333        11   -1
   0.0000000  -0.6666667   0.0000000        10   -1
  -0.1666667  -0.5000000  -0.1666667         6   -3
  -0.1666667  -0.1666667  -0.1666667         2   -3
  -0.3333333   0.0000000  -0.3333333         9   -1
  -0.5000000   0.1666667  -0.5000000         8   -1
  -0.6666667   0.3333333  -0.6666667         7   -1
   0.1666667  -0.5000000   0.1666667         6   -1
   0.0000000  -0.3333333   0.0000000         5   -1
  -0.1666667  -0.1666667   0.1666667         2    4
  -0.3333333   0.0000000   0.0000000         5   -5
  -0.5000000   0.1666667  -0.1666667         6   -5
   0.3333333  -0.6666667   0.6666667         7   -5
   0.1666667  -0.5000000   0.5000000         8   -5
   0.0000000  -0.3333333   0.3333333         9   -5
   0.0000000   0.0000000   0.3333333         5   13
  -0.1666667   0.1666667   0.1666667         2   -2
  -0.3333333   0.3333333   0.0000000         9   13
  -0.5000000   0.5000000  -0.1666667         8   13
  -0.6666667   0.6666667  -0.3333333         7   13
   0.1666667  -0.1666667   0.5000000         6   13
   0.1666667   0.1666667   0.5000000         6  -16
   0.0000000   0.3333333   0.3333333         9   -6
  -0.1666667   0.5000000   0.1666667         6   -2
   0.6666667  -0.3333333   1.0000000        14    1
   0.5000000  -0.1666667   0.8333333        15    1
  -0.6666667   1.0000000  -0.3333333        14   13
  -0.6666667  -0.6666667  -0.3333333         7  -16
   0.1666667   0.5000000   0.5000000         8    7
  -1.0000000  -0.3333333  -0.6666667        14   -9
   0.8333333  -0.1666667  -0.8333333        11   -2
  -0.3333333  -1.0000000   0.0000000        16    1
   0.5000000   0.1666667   0.8333333        15   -3
  -0.5000000  -0.5000000  -0.1666667         8  -16
   0.3333333   0.6666667   0.6666667         7    7
  -0.8333333  -0.1666667  -0.5000000        15   -9
   0.0000000  -1.0000000   0.3333333        16   -9
   0.8333333   0.1666667  -0.8333333        11    4
   0.6666667   0.3333333   1.0000000        14   -3
  -0.3333333  -0.3333333   0.0000000         9   14
  -0.5000000  -0.1666667  -0.1666667         6    7
   0.3333333  -1.0000000   0.6666667        14   22
  -0.8333333   0.1666667  -0.5000000        15   10
  -1.0000000   0.3333333  -0.6666667        14   10
  -0.1666667  -0.5000000   0.1666667         6    4
  -0.3333333  -0.3333333   0.3333333         3    4
  -0.5000000  -0.1666667   0.1666667         6   -8
  -0.6666667   0.0000000   0.0000000        10   -5
   0.1666667  -0.8333333   0.8333333        11   -5
   0.0000000  -0.6666667   0.6666667        12   -5
  -0.1666667  -0.5000000   0.5000000         8    8
  -0.1666667  -0.1666667   0.5000000         6  -14
  -0.3333333   0.0000000   0.3333333         9    2
  -0.5000000   0.1666667   0.1666667         6    6
   0.3333333  -0.6666667   1.0000000        14   -5
   0.1666667  -0.5000000   0.8333333        15   -5
   1.0000000   0.6666667  -0.3333333        14   17
   0.0000000   0.0000000   0.6666667        10   13
  -0.1666667   0.1666667   0.5000000         6   15
  -0.3333333   0.3333333   0.3333333         3   -2
  -0.5000000   0.5000000   0.1666667         8  -15
  -0.6666667   0.6666667   0.0000000        12   13
  -0.8333333   0.8333333  -0.1666667        11   13
  -0.8333333  -0.8333333  -0.1666667        11  -16
  -1.0000000  -0.6666667  -0.3333333        14   18
  -0.1666667   0.5000000   0.5000000         8   -6
   0.6666667  -0.3333333  -0.6666667         7   -2
   0.5000000  -0.1666667  -0.8333333        15   -2
   0.3333333   0.0000000  -1.0000000        16   13
  -0.6666667  -0.6666667   0.0000000        12   14
   0.1666667   0.5000000   0.8333333        15    7
   0.0000000   0.6666667   0.6666667        12   -6
   0.8333333  -0.1666667  -0.5000000        15   12
   0.6666667   0.0000000  -0.6666667        12   -2
   0.5000000   0.1666667  -0.8333333        15    4
  -0.5000000  -0.5000000   0.1666667         8   14
   0.3333333   0.6666667   1.0000000        14    7
   0.1666667   0.8333333   0.8333333        11    7
  -1.0000000   0.0000000  -0.3333333        16   21
   0.8333333   0.1666667  -0.5000000        15  -11
   0.6666667   0.3333333  -0.6666667         7    4
   0.5000000   0.5000000  -0.5000000         4    4
   0.3333333   0.6666667  -0.6666667         7   -8
   0.1666667   0.8333333  -0.8333333        11   -8
  -1.0000000   0.0000000   0.0000000        13    5
  -0.1666667  -0.8333333   0.8333333        11    8
  -0.3333333  -0.6666667   0.6666667         7    8
   0.6666667   0.6666667  -0.3333333         7  -14
  -0.5000000  -0.1666667   0.5000000         8   -4
   0.3333333  -1.0000000  -0.6666667        14  -21
   0.1666667  -0.8333333  -0.8333333        11    6
   1.0000000   0.3333333   0.0000000        16   -5
  -0.1666667  -0.5000000   0.8333333        15    8
   0.8333333   0.8333333  -0.1666667        11  -14
   0.6666667   1.0000000  -0.3333333        14  -14
  -0.5000000   0.1666667   0.5000000         8    2
   0.3333333  -0.6666667  -0.6666667         7    6
   0.1666667  -0.5000000  -0.8333333        15    6
   0.0000000  -0.3333333  -1.0000000        16   17
   0.0000000   0.0000000  -1.0000000        13   13
   0.8333333  -0.8333333  -0.1666667        11   15
   0.6666667  -0.6666667  -0.3333333         7   15
  -0.5000000   0.5000000   0.5000000         4    2
  -0.6666667   0.6666667   0.3333333         7  -15
  -0.8333333   0.8333333   0.1666667        11  -15
  -0.8333333  -0.8333333   0.1666667        11   14
   0.0000000   0.3333333   1.0000000        16  -17
  -0.1666667   0.5000000   0.8333333        15   -6
  -0.3333333   0.6666667   0.6666667         7   -6
   0.5000000  -0.1666667  -0.5000000         8   -2
  -0.6666667  -1.0000000   0.3333333        14   14
  -0.6666667  -0.6666667   0.3333333         7   14
   0.1666667   0.5000000  -0.8333333        15   -8
  -1.0000000  -0.3333333   0.0000000        16    5
  -0.1666667   0.8333333   0.8333333        11   -6
  -0.3333333   1.0000000   0.6666667        14   21
   0.5000000   0.1666667  -0.5000000         8    4
   0.3333333   0.3333333  -0.3333333         3   -4
   0.1666667   0.5000000  -0.5000000         8   -8
   0.0000000   0.6666667  -0.6666667        12    5
  -0.1666667   0.8333333  -0.8333333        11    5
   0.6666667   0.0000000   0.0000000        10    5
   0.5000000   0.1666667  -0.1666667         6    8
   0.5000000   0.5000000  -0.1666667         8  -14
  -0.6666667  -0.3333333   0.6666667         7   -4
  -0.8333333  -0.1666667   0.5000000        15   11
   1.0000000   0.0000000   0.3333333        16  -21
  -0.1666667  -0.8333333  -0.8333333        11   -7
  -0.3333333  -0.6666667  -1.0000000        14   -7
   0.6666667   0.6666667   0.0000000        12  -14
  -0.5000000  -0.1666667   0.8333333        15   -4
  -0.6666667   0.0000000   0.6666667        12    2
  -0.8333333   0.1666667   0.5000000        15  -12
   0.0000000  -0.6666667  -0.6666667        12    6
  -0.1666667  -0.5000000  -0.8333333        15   -7
   0.8333333   0.8333333   0.1666667        11   16
  -0.3333333   0.0000000   1.0000000        16  -13
  -0.5000000   0.1666667   0.8333333        15    2
  -0.6666667   0.3333333   0.6666667         7    2
   0.1666667  -0.5000000  -0.5000000         8    6
   1.0000000   0.6666667   0.3333333        14  -18
   0.0000000   0.0000000  -0.6666667        10  -13
   0.8333333  -0.8333333   0.1666667        11  -13
   0.6666667  -0.6666667   0.0000000        12  -13
   0.5000000  -0.5000000  -0.1666667         8   15
   0.3333333  -0.3333333  -0.3333333         3    2
   0.1666667  -0.1666667  -0.5000000         6  -15
   0.1666667   0.1666667  -0.5000000         6   14
  -1.0000000  -0.6666667   0.3333333        14  -17
  -0.1666667   0.5000000  -0.8333333        15    5
  -0.3333333   0.6666667  -1.0000000        14    5
   0.5000000  -0.1666667  -0.1666667         6   -6
   0.3333333   0.0000000  -0.3333333         9   -2
   0.1666667   0.1666667  -0.1666667         2   -4
   0.0000000   0.3333333  -0.3333333         9    5
  -0.1666667   0.5000000  -0.5000000         8    5
  -0.3333333   0.6666667  -0.6666667         7    5
   0.5000000  -0.1666667   0.1666667         6    5
   0.3333333   0.0000000   0.0000000         5    5
   0.3333333   0.3333333   0.0000000         9  -14
   0.1666667   0.5000000  -0.1666667         6   -4
   1.0000000  -0.3333333   0.6666667        14  -10
   0.8333333  -0.1666667   0.5000000        15  -10
  -0.3333333   1.0000000  -0.6666667        14  -22
   0.5000000   0.1666667   0.1666667         6   -7
   0.5000000   0.5000000   0.1666667         8   16
  -0.6666667  -0.3333333  -1.0000000        14    3
  -0.8333333  -0.1666667   0.8333333        11   -4
   0.0000000   1.0000000  -0.3333333        16    9
   0.8333333   0.1666667   0.5000000        15    9
  -0.3333333  -0.6666667  -0.6666667         7   -7
   0.6666667   0.6666667   0.3333333         7   16
  -0.5000000  -0.1666667  -0.8333333        15    3
   0.3333333   1.0000000   0.0000000        16   -1
  -0.8333333   0.1666667   0.8333333        11    2
   1.0000000   0.3333333   0.6666667        14    9
  -0.1666667  -0.5000000  -0.5000000         8   -7
  -0.1666667  -0.1666667  -0.5000000         6   16
   0.6666667  -1.0000000   0.3333333        14  -13
  -0.5000000   0.1666667  -0.8333333        15   -1
  -0.6666667   0.3333333  -1.0000000        14   -1
   0.1666667  -0.5000000  -0.1666667         6    2
   0.0000000  -0.3333333  -0.3333333         9    6
   0.0000000   0.0000000  -0.3333333         5  -13
  -0.1666667   0.1666667  -0.5000000         6  -13
   0.6666667  -0.6666667   0.3333333         7  -13
   0.5000000  -0.5000000   0.1666667         8  -13
   0.3333333  -0.3333333   0.0000000         9  -13
   0.1666667  -0.1666667  -0.1666667         2    2

     Parallelization info
     --------------------
     sticks:   dense  smooth     PW     G-vecs:    dense   smooth      PW
     Min         191     191     60                 3540     3540     605
     Max         193     193     61                 3541     3541     606
     Sum         769     769    241                14163    14163    2421

     Using Slab Decomposition



     bravais-lattice index     =            2
     lattice parameter (alat)  =      10.5730  a.u.
     unit-cell volume          =     295.4845 (a.u.)^3
     number of atoms/cell      =            2
     number of atomic types    =            2
     number of electrons       =        16.00
     number of Kohn-Sham states=           16
     kinetic-energy cutoff     =      50.0000  Ry
     charge density cutoff     =     200.0000  Ry
     cutoff for Fock operator  =     200.0000  Ry
     scf convergence threshold =      1.0E-08
     mixing beta               =       0.7000
     number of iterations used =            8  plain     mixing
     Exchange-correlation= HSE
                           (   1   4  12   4   0   0   0)
     EXX-fraction              =        1.00

     celldm(1)=  10.573000  celldm(2)=   0.000000  celldm(3)=   0.000000
     celldm(4)=   0.000000  celldm(5)=   0.000000  celldm(6)=   0.000000

     crystal axes: (cart. coord. in units of alat)
               a(1) = (  -0.500000   0.000000   0.500000 )  
               a(2) = (   0.000000   0.500000   0.500000 )  
               a(3) = (  -0.500000   0.500000   0.000000 )  

     reciprocal axes: (cart. coord. in units 2 pi/alat)
               b(1) = ( -1.000000 -1.000000  1.000000 )  
               b(2) = (  1.000000  1.000000  1.000000 )  
               b(3) = ( -1.000000  1.000000 -1.000000 )  


     PseudoPot. # 1 for Na read from file:
     ../../../../pseudos/Na_ONCV_PBE-1.2.upf
     MD5 check sum: 425b17ce8ead78efa4860b7b3310c7e3
     Pseudo is Norm-conserving, Zval =  9.0
     Generated using ONCVPSP code by D. R. Hamann
     Using radial grid of  602 points,  4 beta functions with: 
                l(1) =   0
                l(2) =   0
                l(3) =   1
                l(4) =   1

     PseudoPot. # 2 for Cl read from file:
     ../../../../pseudos/Cl_ONCV_PBE-1.2.upf
     MD5 check sum: 0f993535b366f580ecbcdacce103c843
     Pseudo is Norm-conserving, Zval =  7.0
     Generated using ONCVPSP code by D. R. Hamann
     Using radial grid of  602 points,  4 beta functions with: 
                l(1) =   0
                l(2) =   0
                l(3) =   1
                l(4) =   1

     atomic species   valence    mass     pseudopotential
     Na                9.00    22.99000     Na( 1.00)
     Cl                7.00    35.45300     Cl( 1.00)

     48 Sym. Ops., with inversion, found


                                    s                        frac. trans.

      isym =  1     identity                                     

 cryst.   s( 1) = (     1          0          0      )
                  (     0          1          0      )
                  (     0          0          1      )

 cart.    s( 1) = (  1.0000000  0.0000000  0.0000000 )
                  (  0.0000000  1.0000000  0.0000000 )
                  (  0.0000000  0.0000000  1.0000000 )


      isym =  2     180 deg rotation - cart. axis [0,0,1]        

 cryst.   s( 2) = (     0          1         -1      )
                  (     1          0         -1      )
                  (     0          0         -1      )

 cart.    s( 2) = ( -1.0000000  0.0000000  0.0000000 )
                  (  0.0000000 -1.0000000  0.0000000 )
                  (  0.0000000  0.0000000  1.0000000 )


      isym =  3     180 deg rotation - cart. axis [0,1,0]        

 cryst.   s( 3) = (    -1          0          0      )
                  (    -1          0          1      )
                  (    -1          1          0      )

 cart.    s( 3) = ( -1.0000000  0.0000000  0.0000000 )
                  (  0.0000000  1.0000000  0.0000000 )
                  (  0.0000000  0.0000000 -1.0000000 )


      isym =  4     180 deg rotation - cart. axis [1,0,0]        

 cryst.   s( 4) = (     0         -1          1      )
                  (     0         -1          0      )
                  (     1         -1          0      )

 cart.    s( 4) = (  1.0000000  0.0000000  0.0000000 )
                  (  0.0000000 -1.0000000  0.0000000 )
                  (  0.0000000  0.0000000 -1.0000000 )


      isym =  5     180 deg rotation - cart. axis [1,1,0]        

 cryst.   s( 5) = (     0         -1          0      )
                  (    -1          0          0      )
                  (     0          0         -1      )

 cart.    s( 5) = (  0.0000000  1.0000000  0.0000000 )
                  (  1.0000000  0.0000000  0.0000000 )
                  (  0.0000000  0.0000000 -1.0000000 )


      isym =  6     180 deg rotation - cart. axis [1,-1,0]       

 cryst.   s( 6) = (    -1          0          1      )
                  (     0         -1          1      )
                  (     0          0          1      )

 cart.    s( 6) = (  0.0000000 -1.0000000  0.0000000 )
                  ( -1.0000000  0.0000000  0.0000000 )
                  (  0.0000000  0.0000000 -1.0000000 )


      isym =  7      90 deg rotation - cart. axis [0,0,-1]       

 cryst.   s( 7) = (     0          1          0      )
                  (     0          1         -1      )
                  (    -1          1          0      )

 cart.    s( 7) = (  0.0000000  1.0000000  0.0000000 )
                  ( -1.0000000  0.0000000  0.0000000 )
                  (  0.0000000  0.0000000  1.0000000 )


      isym =  8      90 deg rotation - cart. axis [0,0,1]        

 cryst.   s( 8) = (     1          0         -1      )
                  (     1          0          0      )
                  (     1         -1          0      )

 cart.    s( 8) = (  0.0000000 -1.0000000  0.0000000 )
                  (  1.0000000  0.0000000  0.0000000 )
                  (  0.0000000  0.0000000  1.0000000 )


      isym =  9     180 deg rotation - cart. axis [1,0,1]        

 cryst.   s( 9) = (    -1          0          0      )
                  (     0          0         -1      )
                  (     0         -1          0      )

 cart.    s( 9) = (  0.0000000  0.0000000  1.0000000 )
                  (  0.0000000 -1.0000000  0.0000000 )
                  (  1.0000000  0.0000000  0.0000000 )


      isym = 10     180 deg rotation - cart. axis [-1,0,1]       

 cryst.   s(10) = (     1          0          0      )
                  (     1         -1          0      )
                  (     1          0         -1      )

 cart.    s(10) = (  0.0000000  0.0000000 -1.0000000 )
                  (  0.0000000 -1.0000000  0.0000000 )
                  ( -1.0000000  0.0000000  0.0000000 )


      isym = 11      90 deg rotation - cart. axis [0,1,0]        

 cryst.   s(11) = (     0          1         -1      )
                  (    -1          1          0      )
                  (     0          1          0      )

 cart.    s(11) = (  0.0000000  0.0000000  1.0000000 )
                  (  0.0000000  1.0000000  0.0000000 )
                  ( -1.0000000  0.0000000  0.0000000 )


      isym = 12      90 deg rotation - cart. axis [0,-1,0]       

 cryst.   s(12) = (     0         -1          1      )
                  (     0          0          1      )
                  (    -1          0          1      )

 cart.    s(12) = (  0.0000000  0.0000000 -1.0000000 )
                  (  0.0000000  1.0000000  0.0000000 )
                  (  1.0000000  0.0000000  0.0000000 )


      isym = 13     180 deg rotation - cart. axis [0,1,1]        

 cryst.   s(13) = (    -1          1          0      )
                  (     0          1          0      )
                  (     0          1         -1      )

 cart.    s(13) = ( -1.0000000  0.0000000  0.0000000 )
                  (  0.0000000  0.0000000  1.0000000 )
                  (  0.0000000  1.0000000  0.0000000 )


      isym = 14     180 deg rotation - cart. axis [0,1,-1]       

 cryst.   s(14) = (     0          0         -1      )
                  (     0         -1          0      )
                  (    -1          0          0      )

 cart.    s(14) = ( -1.0000000  0.0000000  0.0000000 )
                  (  0.0000000  0.0000000 -1.0000000 )
                  (  0.0000000 -1.0000000  0.0000000 )


      isym = 15      90 deg rotation - cart. axis [-1,0,0]       

 cryst.   s(15) = (     0          0          1      )
                  (    -1          0          1      )
                  (     0         -1          1      )

 cart.    s(15) = (  1.0000000  0.0000000  0.0000000 )
                  (  0.0000000  0.0000000  1.0000000 )
                  (  0.0000000 -1.0000000  0.0000000 )


      isym = 16      90 deg rotation - cart. axis [1,0,0]        

 cryst.   s(16) = (     1         -1          0      )
                  (     1          0         -1      )
                  (     1          0          0      )

 cart.    s(16) = (  1.0000000  0.0000000  0.0000000 )
                  (  0.0000000  0.0000000 -1.0000000 )
                  (  0.0000000  1.0000000  0.0000000 )


      isym = 17     120 deg rotation - cart. axis [-1,-1,-1]     

 cryst.   s(17) = (    -1          0          1      )
                  (    -1          1          0      )
                  (    -1          0          0      )

 cart.    s(17) = (  0.0000000  1.0000000  0.0000000 )
                  (  0.0000000  0.0000000  1.0000000 )
                  (  1.0000000  0.0000000  0.0000000 )


      isym = 18     120 deg rotation - cart. axis [-1,1,1]       

 cryst.   s(18) = (     0          1          0      )
                  (     0          0          1      )
                  (     1          0          0      )

 cart.    s(18) = (  0.0000000 -1.0000000  0.0000000 )
                  (  0.0000000  0.0000000  1.0000000 )
                  ( -1.0000000  0.0000000  0.0000000 )


      isym = 19     120 deg rotation - cart. axis [1,1,-1]       

 cryst.   s(19) = (     1          0         -1      )
                  (     0          0         -1      )
                  (     0          1         -1      )

 cart.    s(19) = (  0.0000000  1.0000000  0.0000000 )
                  (  0.0000000  0.0000000 -1.0000000 )
                  ( -1.0000000  0.0000000  0.0000000 )


      isym = 20     120 deg rotation - cart. axis [1,-1,1]       

 cryst.   s(20) = (     0         -1          0      )
                  (     1         -1          0      )
                  (     0         -1          1      )

 cart.    s(20) = (  0.0000000 -1.0000000  0.0000000 )
                  (  0.0000000  0.0000000 -1.0000000 )
                  (  1.0000000  0.0000000  0.0000000 )


      isym = 21     120 deg rotation - cart. axis [1,1,1]        

 cryst.   s(21) = (     0          0         -1      )
                  (     0          1         -1      )
                  (     1          0         -1      )

 cart.    s(21) = (  0.0000000  0.0000000  1.0000000 )
                  (  1.0000000  0.0000000  0.0000000 )
                  (  0.0000000  1.0000000  0.0000000 )


      isym = 22     120 deg rotation - cart. axis [-1,1,-1]      

 cryst.   s(22) = (    -1          1          0      )
                  (    -1          0          0      )
                  (    -1          0          1      )

 cart.    s(22) = (  0.0000000  0.0000000  1.0000000 )
                  ( -1.0000000  0.0000000  0.0000000 )
                  (  0.0000000 -1.0000000  0.0000000 )


      isym = 23     120 deg rotation - cart. axis [1,-1,-1]      

 cryst.   s(23) = (     0          0          1      )
                  (     1          0          0      )
                  (     0          1          0      )

 cart.    s(23) = (  0.0000000  0.0000000 -1.0000000 )
                  ( -1.0000000  0.0000000  0.0000000 )
                  (  0.0000000  1.0000000  0.0000000 )


      isym = 24     120 deg rotation - cart. axis [-1,-1,1]      

 cryst.   s(24) = (     1         -1          0      )
                  (     0         -1          1      )
                  (     0         -1          0      )

 cart.    s(24) = (  0.0000000  0.0000000 -1.0000000 )
                  (  1.0000000  0.0000000  0.0000000 )
                  (  0.0000000 -1.0000000  0.0000000 )


      isym = 25     inversion                                    

 cryst.   s(25) = (    -1          0          0      )
                  (     0         -1          0      )
                  (     0          0         -1      )

 cart.    s(25) = ( -1.0000000  0.0000000  0.0000000 )
                  (  0.0000000 -1.0000000  0.0000000 )
                  (  0.0000000  0.0000000 -1.0000000 )


      isym = 26     inv. 180 deg rotation - cart. axis [0,0,1]   

 cryst.   s(26) = (     0         -1          1      )
                  (    -1          0          1      )
                  (     0          0          1      )

 cart.    s(26) = (  1.0000000  0.0000000  0.0000000 )
                  (  0.0000000  1.0000000  0.0000000 )
                  (  0.0000000  0.0000000 -1.0000000 )


      isym = 27     inv. 180 deg rotation - cart. axis [0,1,0]   

 cryst.   s(27) = (     1          0          0      )
                  (     1          0         -1      )
                  (     1         -1          0      )

 cart.    s(27) = (  1.0000000  0.0000000  0.0000000 )
                  (  0.0000000 -1.0000000  0.0000000 )
                  (  0.0000000  0.0000000  1.0000000 )


      isym = 28     inv. 180 deg rotation - cart. axis [1,0,0]   

 cryst.   s(28) = (     0          1         -1      )
                  (     0          1          0      )
                  (    -1          1          0      )

 cart.    s(28) = ( -1.0000000  0.0000000  0.0000000 )
                  (  0.0000000  1.0000000  0.0000000 )
                  (  0.0000000  0.0000000  1.0000000 )


      isym = 29     inv. 180 deg rotation - cart. axis [1,1,0]   

 cryst.   s(29) = (     0          1          0      )
                  (     1          0          0      )
                  (     0          0          1      )

 cart.    s(29) = (  0.0000000 -1.0000000  0.0000000 )
                  ( -1.0000000  0.0000000  0.0000000 )
                  (  0.0000000  0.0000000  1.0000000 )


      isym = 30     inv. 180 deg rotation - cart. axis [1,-1,0]  

 cryst.   s(30) = (     1          0         -1      )
                  (     0          1         -1      )
                  (     0          0         -1      )

 cart.    s(30) = (  0.0000000  1.0000000  0.0000000 )
                  (  1.0000000  0.0000000  0.0000000 )
                  (  0.0000000  0.0000000  1.0000000 )


      isym = 31     inv.  90 deg rotation - cart. axis [0,0,-1]  

 cryst.   s(31) = (     0         -1          0      )
                  (     0         -1          1      )
                  (     1         -1          0      )

 cart.    s(31) = (  0.0000000 -1.0000000  0.0000000 )
                  (  1.0000000  0.0000000  0.0000000 )
                  (  0.0000000  0.0000000 -1.0000000 )


      isym = 32     inv.  90 deg rotation - cart. axis [0,0,1]   

 cryst.   s(32) = (    -1          0          1      )
                  (    -1          0          0      )
                  (    -1          1          0      )

 cart.    s(32) = (  0.0000000  1.0000000  0.0000000 )
                  ( -1.0000000  0.0000000  0.0000000 )
                  (  0.0000000  0.0000000 -1.0000000 )


      isym = 33     inv. 180 deg rotation - cart. axis [1,0,1]   

 cryst.   s(33) = (     1          0          0      )
                  (     0          0          1      )
                  (     0          1          0      )

 cart.    s(33) = (  0.0000000  0.0000000 -1.0000000 )
                  (  0.0000000  1.0000000  0.0000000 )
                  ( -1.0000000  0.0000000  0.0000000 )


      isym = 34     inv. 180 deg rotation - cart. axis [-1,0,1]  

 cryst.   s(34) = (    -1          0          0      )
                  (    -1          1          0      )
                  (    -1          0          1      )

 cart.    s(34) = (  0.0000000  0.0000000  1.0000000 )
                  (  0.0000000  1.0000000  0.0000000 )
                  (  1.0000000  0.0000000  0.0000000 )


      isym = 35     inv.  90 deg rotation - cart. axis [0,1,0]   

 cryst.   s(35) = (     0         -1          1      )
                  (     1         -1          0      )
                  (     0         -1          0      )

 cart.    s(35) = (  0.0000000  0.0000000 -1.0000000 )
                  (  0.0000000 -1.0000000  0.0000000 )
                  (  1.0000000  0.0000000  0.0000000 )


      isym = 36     inv.  90 deg rotation - cart. axis [0,-1,0]  

 cryst.   s(36) = (     0          1         -1      )
                  (     0          0         -1      )
                  (     1          0         -1      )

 cart.    s(36) = (  0.0000000  0.0000000  1.0000000 )
                  (  0.0000000 -1.0000000  0.0000000 )
                  ( -1.0000000  0.0000000  0.0000000 )


      isym = 37     inv. 180 deg rotation - cart. axis [0,1,1]   

 cryst.   s(37) = (     1         -1          0      )
                  (     0         -1          0      )
                  (     0         -1          1      )

 cart.    s(37) = (  1.0000000  0.0000000  0.0000000 )
                  (  0.0000000  0.0000000 -1.0000000 )
                  (  0.0000000 -1.0000000  0.0000000 )


      isym = 38     inv. 180 deg rotation - cart. axis [0,1,-1]  

 cryst.   s(38) = (     0          0          1      )
                  (     0          1          0      )
                  (     1          0          0      )

 cart.    s(38) = (  1.0000000  0.0000000  0.0000000 )
                  (  0.0000000  0.0000000  1.0000000 )
                  (  0.0000000  1.0000000  0.0000000 )


      isym = 39     inv.  90 deg rotation - cart. axis [-1,0,0]  

 cryst.   s(39) = (     0          0         -1      )
                  (     1          0         -1      )
                  (     0          1         -1      )

 cart.    s(39) = ( -1.0000000  0.0000000  0.0000000 )
                  (  0.0000000  0.0000000 -1.0000000 )
                  (  0.0000000  1.0000000  0.0000000 )


      isym = 40     inv.  90 deg rotation - cart. axis [1,0,0]   

 cryst.   s(40) = (    -1          1          0      )
                  (    -1          0          1      )
                  (    -1          0          0      )

 cart.    s(40) = ( -1.0000000  0.0000000  0.0000000 )
                  (  0.0000000  0.0000000  1.0000000 )
                  (  0.0000000 -1.0000000  0.0000000 )


      isym = 41     inv. 120 deg rotation - cart. axis [-1,-1,-1]

 cryst.   s(41) = (     1          0         -1      )
                  (     1         -1          0      )
                  (     1          0          0      )

 cart.    s(41) = (  0.0000000 -1.0000000  0.0000000 )
                  (  0.0000000  0.0000000 -1.0000000 )
                  ( -1.0000000  0.0000000  0.0000000 )


      isym = 42     inv. 120 deg rotation - cart. axis [-1,1,1]  

 cryst.   s(42) = (     0         -1          0      )
                  (     0          0         -1      )
                  (    -1          0          0      )

 cart.    s(42) = (  0.0000000  1.0000000  0.0000000 )
                  (  0.0000000  0.0000000 -1.0000000 )
                  (  1.0000000  0.0000000  0.0000000 )


      isym = 43     inv. 120 deg rotation - cart. axis [1,1,-1]  

 cryst.   s(43) = (    -1          0          1      )
                  (     0          0          1      )
                  (     0         -1          1      )

 cart.    s(43) = (  0.0000000 -1.0000000  0.0000000 )
                  (  0.0000000  0.0000000  1.0000000 )
                  (  1.0000000  0.0000000  0.0000000 )


      isym = 44     inv. 120 deg rotation - cart. axis [1,-1,1]  

 cryst.   s(44) = (     0          1          0      )
                  (    -1          1          0      )
                  (     0          1         -1      )

 cart.    s(44) = (  0.0000000  1.0000000  0.0000000 )
                  (  0.0000000  0.0000000  1.0000000 )
                  ( -1.0000000  0.0000000  0.0000000 )


      isym = 45     inv. 120 deg rotation - cart. axis [1,1,1]   

 cryst.   s(45) = (     0          0          1      )
                  (     0         -1          1      )
                  (    -1          0          1      )

 cart.    s(45) = (  0.0000000  0.0000000 -1.0000000 )
                  ( -1.0000000  0.0000000  0.0000000 )
                  (  0.0000000 -1.0000000  0.0000000 )


      isym = 46     inv. 120 deg rotation - cart. axis [-1,1,-1] 

 cryst.   s(46) = (     1         -1          0      )
                  (     1          0          0      )
                  (     1          0         -1      )

 cart.    s(46) = (  0.0000000  0.0000000 -1.0000000 )
                  (  1.0000000  0.0000000  0.0000000 )
                  (  0.0000000  1.0000000  0.0000000 )


      isym = 47     inv. 120 deg rotation - cart. axis [1,-1,-1] 

 cryst.   s(47) = (     0          0         -1      )
                  (    -1          0          0      )
                  (     0         -1          0      )

 cart.    s(47) = (  0.0000000  0.0000000  1.0000000 )
                  (  1.0000000  0.0000000  0.0000000 )
                  (  0.0000000 -1.0000000  0.0000000 )


      isym = 48     inv. 120 deg rotation - cart. axis [-1,-1,1] 

 cryst.   s(48) = (    -1          1          0      )
                  (     0          1         -1      )
                  (     0          1          0      )

 cart.    s(48) = (  0.0000000  0.0000000  1.0000000 )
                  ( -1.0000000  0.0000000  0.0000000 )
                  (  0.0000000  1.0000000  0.0000000 )


     point group O_h (m-3m) 
     there are 10 classes
     the character table:

       E     8C3   3C2   6C4   6C2'  i     8S6   3s_h  6S4   6s_d 
A_1g   1.00  1.00  1.00  1.00  1.00  1.00  1.00  1.00  1.00  1.00
A_2g   1.00  1.00  1.00 -1.00 -1.00  1.00  1.00  1.00 -1.00 -1.00
E_g    2.00 -1.00  2.00  0.00  0.00  2.00 -1.00  2.00  0.00  0.00
T_1g   3.00  0.00 -1.00  1.00 -1.00  3.00  0.00 -1.00  1.00 -1.00
T_2g   3.00  0.00 -1.00 -1.00  1.00  3.00  0.00 -1.00 -1.00  1.00
A_1u   1.00  1.00  1.00  1.00  1.00 -1.00 -1.00 -1.00 -1.00 -1.00
A_2u   1.00  1.00  1.00 -1.00 -1.00 -1.00 -1.00 -1.00  1.00  1.00
E_u    2.00 -1.00  2.00  0.00  0.00 -2.00  1.00 -2.00  0.00  0.00
T_1u   3.00  0.00 -1.00  1.00 -1.00 -3.00  0.00  1.00 -1.00  1.00
T_2u   3.00  0.00 -1.00 -1.00  1.00 -3.00  0.00  1.00  1.00 -1.00

     the symmetry operations in each class and the name of the first element:

     E        1
          identity                                               
     8C3     17   19   20   18   24   21   22   23
          120 deg rotation - cart. axis [-1,-1,-1]               
     3C2      2    4    3
          180 deg rotation - cart. axis [0,0,1]                  
     6C4      7    8   15   16   12   11
           90 deg rotation - cart. axis [0,0,-1]                 
     6C2'     5    6   14   13   10    9
          180 deg rotation - cart. axis [1,1,0]                  
     i       25
          inversion                                              
     8S6     41   43   44   42   48   45   46   47
          inv. 120 deg rotation - cart. axis [-1,-1,-1]          
     3s_h    26   28   27
          inv. 180 deg rotation - cart. axis [0,0,1]             
     6S4     31   32   39   40   36   35
          inv.  90 deg rotation - cart. axis [0,0,-1]            
     6s_d    29   30   38   37   34   33
          inv. 180 deg rotation - cart. axis [1,1,0]             

   Cartesian axes

     site n.     atom                  positions (alat units)
         1        Na     tau(   1) = (   0.0000000   0.0000000   0.0000000  )
         2        Cl     tau(   2) = (  -0.5000000   0.5000000   0.5000000  )

   Crystallographic axes

     site n.     atom                  positions (cryst. coord.)
         1        Na     tau(   1) = (  0.0000000  0.0000000  0.0000000  )
         2        Cl     tau(   2) = (  0.5000000  0.5000000  0.5000000  )

     number of k points=    16
                       cart. coord. in units 2pi/alat
        k(    1) = (   0.0000000   0.0000000   0.0000000), wk =   0.0092593
        k(    2) = (  -0.1666667   0.1666667  -0.1666667), wk =   0.0740741
        k(    3) = (  -0.3333333   0.3333333  -0.3333333), wk =   0.0740741
        k(    4) = (   0.5000000  -0.5000000   0.5000000), wk =   0.0370370
        k(    5) = (   0.0000000   0.3333333   0.0000000), wk =   0.0555556
        k(    6) = (  -0.1666667   0.5000000  -0.1666667), wk =   0.2222222
        k(    7) = (   0.6666667  -0.3333333   0.6666667), wk =   0.2222222
        k(    8) = (   0.5000000  -0.1666667   0.5000000), wk =   0.2222222
        k(    9) = (   0.3333333   0.0000000   0.3333333), wk =   0.1111111
        k(   10) = (   0.0000000   0.6666667   0.0000000), wk =   0.0555556
        k(   11) = (   0.8333333  -0.1666667   0.8333333), wk =   0.2222222
        k(   12) = (   0.6666667  -0.0000000   0.6666667), wk =   0.1111111
        k(   13) = (   0.0000000  -1.0000000   0.0000000), wk =   0.0277778
        k(   14) = (   0.6666667  -0.3333333   1.0000000), wk =   0.2222222
        k(   15) = (   0.5000000  -0.1666667   0.8333333), wk =   0.2222222
        k(   16) = (  -0.3333333  -1.0000000   0.0000000), wk =   0.1111111

                       cryst. coord.
        k(    1) = (   0.0000000   0.0000000   0.0000000), wk =   0.0092593
        k(    2) = (   0.0000000   0.0000000   0.1666667), wk =   0.0740741
        k(    3) = (   0.0000000   0.0000000   0.3333333), wk =   0.0740741
        k(    4) = (   0.0000000   0.0000000  -0.5000000), wk =   0.0370370
        k(    5) = (   0.0000000   0.1666667   0.1666667), wk =   0.0555556
        k(    6) = (   0.0000000   0.1666667   0.3333333), wk =   0.2222222
        k(    7) = (   0.0000000   0.1666667  -0.5000000), wk =   0.2222222
        k(    8) = (   0.0000000   0.1666667  -0.3333333), wk =   0.2222222
        k(    9) = (   0.0000000   0.1666667  -0.1666667), wk =   0.1111111
        k(   10) = (   0.0000000   0.3333333   0.3333333), wk =   0.0555556
        k(   11) = (   0.0000000   0.3333333  -0.5000000), wk =   0.2222222
        k(   12) = (   0.0000000   0.3333333  -0.3333333), wk =   0.1111111
        k(   13) = (   0.0000000  -0.5000000  -0.5000000), wk =   0.0277778
        k(   14) = (   0.1666667   0.3333333  -0.5000000), wk =   0.2222222
        k(   15) = (   0.1666667   0.3333333  -0.3333333), wk =   0.2222222
        k(   16) = (   0.1666667  -0.5000000  -0.3333333), wk =   0.1111111

     Dense  grid:    14163 G-vectors     FFT dimensions: (  36,  36,  36)

     Dynamical RAM for                 wfc:       0.11 MB

     Dynamical RAM for     wfc (w. buffer):       1.83 MB

     Dynamical RAM for                 EXX:     374.89 MB

     Dynamical RAM for           str. fact:       0.11 MB

     Dynamical RAM for           local pot:       0.00 MB

     Dynamical RAM for          nlocal pot:       0.11 MB

     Dynamical RAM for                qrad:       0.72 MB

     Dynamical RAM for          rho,v,vnew:       0.43 MB

     Dynamical RAM for               rhoin:       0.14 MB

     Dynamical RAM for            rho*nmix:       0.86 MB

     Dynamical RAM for           G-vectors:       0.23 MB

     Dynamical RAM for          h,s,v(r/c):       0.05 MB

     Dynamical RAM for          <psi|beta>:       0.00 MB

     Dynamical RAM for                 psi:       0.22 MB

     Dynamical RAM for                hpsi:       0.22 MB

     Dynamical RAM for      wfcinit/wfcrot:       0.22 MB

     Estimated static dynamical RAM per process >     379.06 MB

     Estimated max dynamical RAM per process >     380.41 MB

     Estimated total dynamical RAM >       1.49 GB
     EXX: ACE will be initialized later

     Initial potential from superposition of free atoms

     starting charge      15.8586, renormalised to      16.0000
     Starting wfcs are random

     total cpu time spent up to now is        0.2 secs

     Self-consistent Calculation

     iteration #  1     ecut=    50.00 Ry     beta= 0.70
     Davidson diagonalization with overlap

---- Real-time Memory Report at c_bands before calling an iterative solver
            67 MiB given to the printing process from OS
             0 MiB allocation reported by mallinfo(arena+hblkhd)
         13576 MiB available memory on the node where the printing process lives
------------------
     ethr =  1.00E-02,  avg # of iterations =  7.7

     Threshold (ethr) on eigenvalues was too large:
     Diagonalizing with lowered threshold

     Davidson diagonalization with overlap

---- Real-time Memory Report at c_bands before calling an iterative solver
            68 MiB given to the printing process from OS
             0 MiB allocation reported by mallinfo(arena+hblkhd)
         13573 MiB available memory on the node where the printing process lives
------------------
     ethr =  3.04E-04,  avg # of iterations =  3.4

     total cpu time spent up to now is        0.6 secs

     total energy              =    -115.63870987 Ry
     estimated scf accuracy    <       0.04705599 Ry

     iteration #  2     ecut=    50.00 Ry     beta= 0.70
     Davidson diagonalization with overlap

---- Real-time Memory Report at c_bands before calling an iterative solver
            69 MiB given to the printing process from OS
             0 MiB allocation reported by mallinfo(arena+hblkhd)
         13569 MiB available memory on the node where the printing process lives
------------------
     ethr =  2.94E-04,  avg # of iterations =  2.3

     total cpu time spent up to now is        0.8 secs

     total energy              =    -115.65068392 Ry
     estimated scf accuracy    <       0.00879280 Ry

     iteration #  3     ecut=    50.00 Ry     beta= 0.70
     Davidson diagonalization with overlap

---- Real-time Memory Report at c_bands before calling an iterative solver
            69 MiB given to the printing process from OS
             0 MiB allocation reported by mallinfo(arena+hblkhd)
         13568 MiB available memory on the node where the printing process lives
------------------
     ethr =  5.50E-05,  avg # of iterations =  3.2

     total cpu time spent up to now is        0.9 secs

     total energy              =    -115.65246664 Ry
     estimated scf accuracy    <       0.00027558 Ry

     iteration #  4     ecut=    50.00 Ry     beta= 0.70
     Davidson diagonalization with overlap

---- Real-time Memory Report at c_bands before calling an iterative solver
            69 MiB given to the printing process from OS
             0 MiB allocation reported by mallinfo(arena+hblkhd)
         13568 MiB available memory on the node where the printing process lives
------------------
     ethr =  1.72E-06,  avg # of iterations =  4.5

     total cpu time spent up to now is        1.0 secs

     total energy              =    -115.65250389 Ry
     estimated scf accuracy    <       0.00000534 Ry

     iteration #  5     ecut=    50.00 Ry     beta= 0.70
     Davidson diagonalization with overlap

---- Real-time Memory Report at c_bands before calling an iterative solver
            69 MiB given to the printing process from OS
             0 MiB allocation reported by mallinfo(arena+hblkhd)
         13567 MiB available memory on the node where the printing process lives
------------------
     ethr =  3.34E-08,  avg # of iterations =  2.0

     total cpu time spent up to now is        1.1 secs

     total energy              =    -115.65250562 Ry
     estimated scf accuracy    <       0.00000026 Ry

     iteration #  6     ecut=    50.00 Ry     beta= 0.70
     Davidson diagonalization with overlap

---- Real-time Memory Report at c_bands before calling an iterative solver
            70 MiB given to the printing process from OS
             0 MiB allocation reported by mallinfo(arena+hblkhd)
         13566 MiB available memory on the node where the printing process lives
------------------
     ethr =  1.60E-09,  avg # of iterations =  2.0

     total cpu time spent up to now is        1.2 secs

     total energy              =    -115.65250575 Ry
     estimated scf accuracy    <       0.00000001 Ry

     iteration #  7     ecut=    50.00 Ry     beta= 0.70
     Davidson diagonalization with overlap

---- Real-time Memory Report at c_bands before calling an iterative solver
            70 MiB given to the printing process from OS
             0 MiB allocation reported by mallinfo(arena+hblkhd)
         13566 MiB available memory on the node where the printing process lives
------------------
     ethr =  8.82E-11,  avg # of iterations =  2.0

     total cpu time spent up to now is        1.3 secs

     End of self-consistent calculation

          k = 0.0000 0.0000 0.0000 (  1807 PWs)   bands (ev):

   -47.4775 -19.4259 -19.4259 -19.4259 -11.2854   1.3958   1.3958   1.3958
     6.6090  12.6683  12.6683  12.6683  14.9191  14.9191  16.3975  18.7519

     occupation numbers 
     1.0000   1.0000   1.0000   1.0000   1.0000   1.0000   1.0000   1.0000
     0.0000   0.0000   0.0000   0.0000   0.0000   0.0000   0.0000   0.0000

          k =-0.1667 0.1667-0.1667 (  1781 PWs)   bands (ev):

   -47.4769 -19.4340 -19.4264 -19.4264 -11.1996   0.7758   1.3240   1.3240
     7.4346  11.8525  12.9580  12.9580  14.5759  14.5759  17.5450  18.9522

     occupation numbers 
     1.0000   1.0000   1.0000   1.0000   1.0000   1.0000   1.0000   1.0000
     0.0000   0.0000   0.0000   0.0000   0.0000   0.0000   0.0000   0.0000

          k =-0.3333 0.3333-0.3333 (  1760 PWs)   bands (ev):

   -47.4761 -19.4501 -19.4276 -19.4276 -11.0204  -0.1861   1.1871   1.1871
     8.5492  11.6380  12.7688  12.7688  15.6741  15.6741  16.8565  21.0687

     occupation numbers 
     1.0000   1.0000   1.0000   1.0000   1.0000   1.0000   1.0000   1.0000
     0.0000   0.0000   0.0000   0.0000   0.0000   0.0000   0.0000   0.0000

          k = 0.5000-0.5000 0.5000 (  1772 PWs)   bands (ev):

   -47.4761 -19.4581 -19.4281 -19.4281 -10.9264  -0.5940   1.1217   1.1217
     8.7516  12.2266  12.5304  12.5304  16.5996  17.8560  17.8560  18.8834

     occupation numbers 
     1.0000   1.0000   1.0000   1.0000   1.0000   1.0000   1.0000   1.0000
     0.0000   0.0000   0.0000   0.0000   0.0000   0.0000   0.0000   0.0000

          k = 0.0000 0.3333 0.0000 (  1792 PWs)   bands (ev):

   -47.4770 -19.4333 -19.4281 -19.4281 -11.1750   0.7565   1.2258   1.2258
     7.7084  11.3875  13.3158  13.3158  13.3640  15.3070  18.6825  19.5029

     occupation numbers 
     1.0000   1.0000   1.0000   1.0000   1.0000   1.0000   1.0000   1.0000
     0.0000   0.0000   0.0000   0.0000   0.0000   0.0000   0.0000   0.0000

          k =-0.1667 0.5000-0.1667 (  1756 PWs)   bands (ev):

   -47.4761 -19.4443 -19.4297 -19.4295 -11.0345   0.0800   1.0406   1.0806
     8.8440  10.9025  12.2116  13.5202  14.5843  16.1858  18.7422  21.1037

     occupation numbers 
     1.0000   1.0000   1.0000   1.0000   1.0000   1.0000   1.0000   1.0000
     0.0000   0.0000   0.0000   0.0000   0.0000   0.0000   0.0000   0.0000

          k = 0.6667-0.3333 0.6667 (  1767 PWs)   bands (ev):

   -47.4759 -19.4534 -19.4319 -19.4298 -10.9145  -0.3916   0.8113   1.0304
     9.3819  11.4190  11.9305  13.1247  16.0868  17.8825  18.4642  18.7512

     occupation numbers 
     1.0000   1.0000   1.0000   1.0000   1.0000   1.0000   1.0000   1.0000
     0.0000   0.0000   0.0000   0.0000   0.0000   0.0000   0.0000   0.0000

          k = 0.5000-0.1667 0.5000 (  1771 PWs)   bands (ev):

   -47.4761 -19.4514 -19.4330 -19.4282 -10.9415  -0.2768   0.7608   1.1202
     9.3914  11.5435  11.7846  13.0773  15.4425  17.5720  18.0995  18.5752

     occupation numbers 
     1.0000   1.0000   1.0000   1.0000   1.0000   1.0000   1.0000   1.0000
     0.0000   0.0000   0.0000   0.0000   0.0000   0.0000   0.0000   0.0000

          k = 0.3333 0.0000 0.3333 (  1773 PWs)   bands (ev):

   -47.4765 -19.4416 -19.4305 -19.4265 -11.0861   0.2770   1.0090   1.2682
     8.4559  11.2821  12.5868  13.5932  13.6351  15.8450  18.9332  19.2445

     occupation numbers 
     1.0000   1.0000   1.0000   1.0000   1.0000   1.0000   1.0000   1.0000
     0.0000   0.0000   0.0000   0.0000   0.0000   0.0000   0.0000   0.0000

          k = 0.0000 0.6667 0.0000 (  1752 PWs)   bands (ev):

   -47.4758 -19.4443 -19.4325 -19.4325 -10.9697  -0.0546   0.9182   0.9182
     9.1707  10.0257  12.0952  14.9235  14.9235  16.2931  20.5269  20.5269

     occupation numbers 
     1.0000   1.0000   1.0000   1.0000   1.0000   1.0000   1.0000   1.0000
     0.0000   0.0000   0.0000   0.0000   0.0000   0.0000   0.0000   0.0000

          k = 0.8333-0.1667 0.8333 (  1758 PWs)   bands (ev):

   -47.4756 -19.4469 -19.4366 -19.4331 -10.8894  -0.1979   0.5826   0.8588
     9.5134  10.1621  12.1240  14.6880  15.6458  17.9593  18.7954  18.9015

     occupation numbers 
     1.0000   1.0000   1.0000   1.0000   1.0000   1.0000   1.0000   1.0000
     0.0000   0.0000   0.0000   0.0000   0.0000   0.0000   0.0000   0.0000

          k = 0.6667-0.0000 0.6667 (  1766 PWs)   bands (ev):

   -47.4758 -19.4458 -19.4415 -19.4309 -10.8753   0.0234   0.1260   0.9548
    10.0659  10.9093  11.7238  13.9131  15.3191  16.3374  19.9398  20.2599

     occupation numbers 
     1.0000   1.0000   1.0000   1.0000   1.0000   1.0000   1.0000   1.0000
     0.0000   0.0000   0.0000   0.0000   0.0000   0.0000   0.0000   0.0000

          k = 0.0000-1.0000 0.0000 (  1756 PWs)   bands (ev):

   -47.4755 -19.4479 -19.4347 -19.4347 -10.8762  -0.3241   0.7778   0.7778
     9.0664   9.5426  12.8865  16.3946  16.3946  16.9861  18.7298  18.7298

     occupation numbers 
     1.0000   1.0000   1.0000   1.0000   1.0000   1.0000   1.0000   1.0000
     0.0000   0.0000   0.0000   0.0000   0.0000   0.0000   0.0000   0.0000

          k = 0.6667-0.3333 1.0000 (  1764 PWs)   bands (ev):

   -47.4759 -19.4472 -19.4355 -19.4307 -10.9292  -0.1121   0.6246   0.9567
     9.9145  10.6907  11.3726  13.9008  15.2114  17.7154  18.2793  20.3512

     occupation numbers 
     1.0000   1.0000   1.0000   1.0000   1.0000   1.0000   1.0000   1.0000
     0.0000   0.0000   0.0000   0.0000   0.0000   0.0000   0.0000   0.0000

          k = 0.5000-0.1667 0.8333 (  1756 PWs)   bands (ev):

   -47.4756 -19.4477 -19.4380 -19.4326 -10.8753  -0.1251   0.3773   0.8445
    10.4251  10.7184  11.5092  13.4531  15.8513  17.2832  18.3678  20.5602

     occupation numbers 
     1.0000   1.0000   1.0000   1.0000   1.0000   1.0000   1.0000   1.0000
     0.0000   0.0000   0.0000   0.0000   0.0000   0.0000   0.0000   0.0000

          k =-0.3333-1.0000 0.0000 (  1766 PWs)   bands (ev):

   -47.4757 -19.4446 -19.4380 -19.4365 -10.8625  -0.0909   0.4519   0.6555
     9.9371  10.3891  12.0521  13.6617  16.8203  17.9424  17.9995  18.7779

     occupation numbers 
     1.0000   1.0000   1.0000   1.0000   1.0000   1.0000   1.0000   1.0000
     0.0000   0.0000   0.0000   0.0000   0.0000   0.0000   0.0000   0.0000

     highest occupied, lowest unoccupied level (ev):     1.3958    6.6090

!    total energy              =    -115.65250575 Ry
     estimated scf accuracy    <          4.8E-11 Ry

     convergence has been achieved in   7 iterations

     Using ACE for calculation of exact exchange

     EXX grid:    14163 G-vectors     FFT dimensions: (  36,  36,  36)
     ACE projected onto    16 (nbndproj) and applied to    16 (nbnd) bands

     EXX: now go back to refine exchange calculation

     total cpu time spent up to now is      180.3 secs

     Self-consistent Calculation

     iteration #  1     ecut=    50.00 Ry     beta= 0.70
     Davidson diagonalization with overlap

---- Real-time Memory Report at c_bands before calling an iterative solver
           795 MiB given to the printing process from OS
             0 MiB allocation reported by mallinfo(arena+hblkhd)
         10690 MiB available memory on the node where the printing process lives
------------------
     ethr =  8.82E-11,  avg # of iterations =  7.8

     total cpu time spent up to now is      180.6 secs

     total energy              =    -115.80028177 Ry
     estimated scf accuracy    <       0.00045926 Ry

     iteration #  2     ecut=    50.00 Ry     beta= 0.70
     Davidson diagonalization with overlap

---- Real-time Memory Report at c_bands before calling an iterative solver
           795 MiB given to the printing process from OS
             0 MiB allocation reported by mallinfo(arena+hblkhd)
         10689 MiB available memory on the node where the printing process lives
------------------
     ethr =  2.87E-06,  avg # of iterations =  2.0

     total cpu time spent up to now is      180.7 secs

     total energy              =    -115.80035584 Ry
     estimated scf accuracy    <       0.00002829 Ry

     iteration #  3     ecut=    50.00 Ry     beta= 0.70
     Davidson diagonalization with overlap

---- Real-time Memory Report at c_bands before calling an iterative solver
           795 MiB given to the printing process from OS
             0 MiB allocation reported by mallinfo(arena+hblkhd)
         10688 MiB available memory on the node where the printing process lives
------------------
     ethr =  1.77E-07,  avg # of iterations =  2.0

     total cpu time spent up to now is      180.8 secs

     total energy              =    -115.80036142 Ry
     estimated scf accuracy    <       0.00000262 Ry

     iteration #  4     ecut=    50.00 Ry     beta= 0.70
     Davidson diagonalization with overlap

---- Real-time Memory Report at c_bands before calling an iterative solver
           795 MiB given to the printing process from OS
             0 MiB allocation reported by mallinfo(arena+hblkhd)
         10688 MiB available memory on the node where the printing process lives
------------------
     ethr =  1.64E-08,  avg # of iterations =  2.0

     total cpu time spent up to now is      180.9 secs

     total energy              =    -115.80036177 Ry
     estimated scf accuracy    <       0.00000004 Ry

     iteration #  5     ecut=    50.00 Ry     beta= 0.70
     Davidson diagonalization with overlap

---- Real-time Memory Report at c_bands before calling an iterative solver
           795 MiB given to the printing process from OS
             0 MiB allocation reported by mallinfo(arena+hblkhd)
         10687 MiB available memory on the node where the printing process lives
------------------
     ethr =  2.47E-10,  avg # of iterations =  1.9

     total cpu time spent up to now is      181.0 secs

     End of self-consistent calculation

          k = 0.0000 0.0000 0.0000 (  1807 PWs)   bands (ev):

   -60.4823 -25.7908 -25.7907 -25.7907 -16.4890  -1.0339  -1.0339  -1.0339
     7.5767  14.0845  14.0845  14.0845  16.6964  16.6964  17.5269  20.7191

     occupation numbers 
     1.0000   1.0000   1.0000   1.0000   1.0000   1.0000   1.0000   1.0000
     0.0000   0.0000   0.0000   0.0000   0.0000   0.0000   0.0000   0.0000

          k =-0.1667 0.1667-0.1667 (  1781 PWs)   bands (ev):

   -60.4816 -25.7988 -25.7910 -25.7910 -16.3969  -1.7248  -1.1210  -1.1210
     8.4790  13.1591  14.4254  14.4254  16.3222  16.3222  19.0464  20.6564

     occupation numbers 
     1.0000   1.0000   1.0000   1.0000   1.0000   1.0000   1.0000   1.0000
     0.0000   0.0000   0.0000   0.0000   0.0000   0.0000   0.0000   0.0000

          k =-0.3333 0.3333-0.3333 (  1760 PWs)   bands (ev):

   -60.4811 -25.8146 -25.7919 -25.7919 -16.2019  -2.8322  -1.2842  -1.2842
     9.6561  13.0631  14.3209  14.3209  17.4569  17.4569  18.4693  23.3151

     occupation numbers 
     1.0000   1.0000   1.0000   1.0000   1.0000   1.0000   1.0000   1.0000
     0.0000   0.0000   0.0000   0.0000   0.0000   0.0000   0.0000   0.0000

          k = 0.5000-0.5000 0.5000 (  1772 PWs)   bands (ev):

   -60.4809 -25.8225 -25.7922 -25.7922 -16.1018  -3.3083  -1.3628  -1.3628
     9.8281  13.8464  14.0867  14.0867  18.1100  20.0980  20.0980  20.5172

     occupation numbers 
     1.0000   1.0000   1.0000   1.0000   1.0000   1.0000   1.0000   1.0000
     0.0000   0.0000   0.0000   0.0000   0.0000   0.0000   0.0000   0.0000

          k = 0.0000 0.3333 0.0000 (  1792 PWs)   bands (ev):

   -60.4816 -25.7976 -25.7928 -25.7927 -16.3703  -1.7458  -1.2342  -1.2342
     8.7871  12.6121  14.8319  14.8319  15.0171  17.1343  20.0357  21.4937

     occupation numbers 
     1.0000   1.0000   1.0000   1.0000   1.0000   1.0000   1.0000   1.0000
     0.0000   0.0000   0.0000   0.0000   0.0000   0.0000   0.0000   0.0000

          k =-0.1667 0.5000-0.1667 (  1756 PWs)   bands (ev):

   -60.4809 -25.8086 -25.7942 -25.7939 -16.2179  -2.5271  -1.4508  -1.4055
    10.0336  12.1241  13.7394  15.1320  16.2636  18.0726  20.5243  23.3422

     occupation numbers 
     1.0000   1.0000   1.0000   1.0000   1.0000   1.0000   1.0000   1.0000
     0.0000   0.0000   0.0000   0.0000   0.0000   0.0000   0.0000   0.0000

          k = 0.6667-0.3333 0.6667 (  1767 PWs)   bands (ev):

   -60.4807 -25.8177 -25.7959 -25.7940 -16.0887  -3.0776  -1.7138  -1.4679
    10.5302  12.9658  13.3235  14.7492  17.8467  20.0841  20.1405  20.9135

     occupation numbers 
     1.0000   1.0000   1.0000   1.0000   1.0000   1.0000   1.0000   1.0000
     0.0000   0.0000   0.0000   0.0000   0.0000   0.0000   0.0000   0.0000

          k = 0.5000-0.1667 0.5000 (  1771 PWs)   bands (ev):

   -60.4809 -25.8157 -25.7973 -25.7922 -16.1175  -2.9421  -1.7700  -1.3647
    10.5625  12.9781  13.2631  14.7074  17.1626  19.2243  20.1073  20.5956

     occupation numbers 
     1.0000   1.0000   1.0000   1.0000   1.0000   1.0000   1.0000   1.0000
     0.0000   0.0000   0.0000   0.0000   0.0000   0.0000   0.0000   0.0000

          k = 0.3333 0.0000 0.3333 (  1773 PWs)   bands (ev):

   -60.4812 -25.8060 -25.7951 -25.7908 -16.2741  -2.2957  -1.4842  -1.1910
     9.6077  12.5297  14.1353  15.1401  15.2928  17.6411  20.6156  21.1773

     occupation numbers 
     1.0000   1.0000   1.0000   1.0000   1.0000   1.0000   1.0000   1.0000
     0.0000   0.0000   0.0000   0.0000   0.0000   0.0000   0.0000   0.0000

          k = 0.0000 0.6667 0.0000 (  1752 PWs)   bands (ev):

   -60.4808 -25.8082 -25.7971 -25.7971 -16.1463  -2.6936  -1.5928  -1.5928
    10.4487  11.1174  13.6040  16.6611  16.6611  18.2693  23.0363  23.0363

     occupation numbers 
     1.0000   1.0000   1.0000   1.0000   1.0000   1.0000   1.0000   1.0000
     0.0000   0.0000   0.0000   0.0000   0.0000   0.0000   0.0000   0.0000

          k = 0.8333-0.1667 0.8333 (  1758 PWs)   bands (ev):

   -60.4805 -25.8108 -25.8009 -25.7974 -16.0604  -2.8681  -1.9739  -1.6641
    10.7686  11.3728  13.5896  16.4785  17.4151  20.1557  20.9148  20.9908

     occupation numbers 
     1.0000   1.0000   1.0000   1.0000   1.0000   1.0000   1.0000   1.0000
     0.0000   0.0000   0.0000   0.0000   0.0000   0.0000   0.0000   0.0000

          k = 0.6667-0.0000 0.6667 (  1766 PWs)   bands (ev):

   -60.4808 -25.8102 -25.8056 -25.7951 -16.0444  -2.6025  -2.4982  -1.5549
    11.2872  12.3896  13.0971  15.6683  16.9318  18.1313  22.2666  22.6176

     occupation numbers 
     1.0000   1.0000   1.0000   1.0000   1.0000   1.0000   1.0000   1.0000
     0.0000   0.0000   0.0000   0.0000   0.0000   0.0000   0.0000   0.0000

          k = 0.0000-1.0000 0.0000 (  1756 PWs)   bands (ev):

   -60.4804 -25.8115 -25.7991 -25.7991 -16.0463  -3.0203  -1.7575  -1.7575
    10.3570  10.5916  14.4434  18.2601  18.2601  19.1039  21.0575  21.0576

     occupation numbers 
     1.0000   1.0000   1.0000   1.0000   1.0000   1.0000   1.0000   1.0000
     0.0000   0.0000   0.0000   0.0000   0.0000   0.0000   0.0000   0.0000

          k = 0.6667-0.3333 1.0000 (  1764 PWs)   bands (ev):

   -60.4807 -25.8113 -25.7998 -25.7949 -16.1041  -2.7574  -1.9267  -1.5506
    11.2419  11.8855  12.8125  15.6328  16.9258  19.4949  20.5223  22.5689

     occupation numbers 
     1.0000   1.0000   1.0000   1.0000   1.0000   1.0000   1.0000   1.0000
     0.0000   0.0000   0.0000   0.0000   0.0000   0.0000   0.0000   0.0000

          k = 0.5000-0.1667 0.8333 (  1756 PWs)   bands (ev):

   -60.4805 -25.8119 -25.8020 -25.7968 -16.0455  -2.7773  -2.2096  -1.6781
    11.6626  12.1880  12.8595  15.1110  17.5508  19.1750  20.5541  22.9747

     occupation numbers 
     1.0000   1.0000   1.0000   1.0000   1.0000   1.0000   1.0000   1.0000
     0.0000   0.0000   0.0000   0.0000   0.0000   0.0000   0.0000   0.0000

          k =-0.3333-1.0000 0.0000 (  1766 PWs)   bands (ev):

   -60.4805 -25.8084 -25.8022 -25.8008 -16.0316  -2.7497  -2.1269  -1.8878
    11.3290  11.5530  13.4750  15.3297  18.6810  19.9760  19.9976  21.1340

     occupation numbers 
     1.0000   1.0000   1.0000   1.0000   1.0000   1.0000   1.0000   1.0000
     0.0000   0.0000   0.0000   0.0000   0.0000   0.0000   0.0000   0.0000

     highest occupied, lowest unoccupied level (ev):    -1.0339    7.5767

!    total energy              =    -115.80036178 Ry
     estimated scf accuracy    <          3.3E-10 Ry

     convergence has been achieved in   5 iterations

     Using ACE for calculation of exact exchange
     ACE projected onto    16 (nbndproj) and applied to    16 (nbnd) bands

     total energy              =    -115.80100504 Ry
     Harris-Foulkes estimate   =    -115.80100504 Ry
     est. exchange err (dexx)  =       0.00064326 Ry
     - averaged Fock potential =      20.76518232 Ry
     + Fock energy (ACE)       =     -10.39949911 Ry

     EXX: now go back to refine exchange calculation

     total cpu time spent up to now is      360.0 secs

     Self-consistent Calculation

     iteration #  1     ecut=    50.00 Ry     beta= 0.70
     Davidson diagonalization with overlap

---- Real-time Memory Report at c_bands before calling an iterative solver
           795 MiB given to the printing process from OS
             0 MiB allocation reported by mallinfo(arena+hblkhd)
         10691 MiB available memory on the node where the printing process lives
------------------
     ethr =  2.47E-10,  avg # of iterations =  5.2

     total cpu time spent up to now is      360.2 secs

     total energy              =    -115.80110535 Ry
     estimated scf accuracy    <       0.00002076 Ry

     iteration #  2     ecut=    50.00 Ry     beta= 0.70
     Davidson diagonalization with overlap

---- Real-time Memory Report at c_bands before calling an iterative solver
           795 MiB given to the printing process from OS
             0 MiB allocation reported by mallinfo(arena+hblkhd)
         10689 MiB available memory on the node where the printing process lives
------------------
     ethr =  1.30E-07,  avg # of iterations =  2.0

     total cpu time spent up to now is      360.3 secs

     total energy              =    -115.80110884 Ry
     estimated scf accuracy    <       0.00000127 Ry

     iteration #  3     ecut=    50.00 Ry     beta= 0.70
     Davidson diagonalization with overlap

---- Real-time Memory Report at c_bands before calling an iterative solver
           795 MiB given to the printing process from OS
             0 MiB allocation reported by mallinfo(arena+hblkhd)
         10688 MiB available memory on the node where the printing process lives
------------------
     ethr =  7.92E-09,  avg # of iterations =  2.0

     total cpu time spent up to now is      360.5 secs

     total energy              =    -115.80110913 Ry
     estimated scf accuracy    <       0.00000011 Ry

     iteration #  4     ecut=    50.00 Ry     beta= 0.70
     Davidson diagonalization with overlap

---- Real-time Memory Report at c_bands before calling an iterative solver
           795 MiB given to the printing process from OS
             0 MiB allocation reported by mallinfo(arena+hblkhd)
         10687 MiB available memory on the node where the printing process lives
------------------
     ethr =  7.03E-10,  avg # of iterations =  2.0

     total cpu time spent up to now is      360.6 secs

     End of self-consistent calculation

          k = 0.0000 0.0000 0.0000 (  1807 PWs)   bands (ev):

   -60.4934 -25.8073 -25.8073 -25.8073 -16.4881  -1.0552  -1.0552  -1.0552
     7.6483  14.1006  14.1006  14.1006  16.7032  16.7032  17.5523  20.7402

     occupation numbers 
     1.0000   1.0000   1.0000   1.0000   1.0000   1.0000   1.0000   1.0000
     0.0000   0.0000   0.0000   0.0000   0.0000   0.0000   0.0000   0.0000

          k =-0.1667 0.1667-0.1667 (  1781 PWs)   bands (ev):

   -60.4927 -25.8152 -25.8076 -25.8076 -16.3965  -1.7301  -1.1405  -1.1405
     8.5355  13.1810  14.4406  14.4406  16.3321  16.3321  19.0690  20.6736

     occupation numbers 
     1.0000   1.0000   1.0000   1.0000   1.0000   1.0000   1.0000   1.0000
     0.0000   0.0000   0.0000   0.0000   0.0000   0.0000   0.0000   0.0000

          k =-0.3333 0.3333-0.3333 (  1760 PWs)   bands (ev):

   -60.4922 -25.8307 -25.8084 -25.8084 -16.2040  -2.8224  -1.3018  -1.3018
     9.6996  13.0878  14.3376  14.3376  17.4640  17.4640  18.4979  23.2956

     occupation numbers 
     1.0000   1.0000   1.0000   1.0000   1.0000   1.0000   1.0000   1.0000
     0.0000   0.0000   0.0000   0.0000   0.0000   0.0000   0.0000   0.0000

          k = 0.5000-0.5000 0.5000 (  1772 PWs)   bands (ev):

   -60.4921 -25.8383 -25.8087 -25.8087 -16.1045  -3.2936  -1.3794  -1.3794
     9.8687  13.8740  14.1044  14.1044  18.1404  20.0933  20.0933  20.5397

     occupation numbers 
     1.0000   1.0000   1.0000   1.0000   1.0000   1.0000   1.0000   1.0000
     0.0000   0.0000   0.0000   0.0000   0.0000   0.0000   0.0000   0.0000

          k = 0.0000 0.3333 0.0000 (  1792 PWs)   bands (ev):

   -60.4928 -25.8140 -25.8093 -25.8093 -16.3700  -1.7503  -1.2517  -1.2517
     8.8395  12.6358  14.8462  14.8462  15.0341  17.1399  20.0530  21.5105

     occupation numbers 
     1.0000   1.0000   1.0000   1.0000   1.0000   1.0000   1.0000   1.0000
     0.0000   0.0000   0.0000   0.0000   0.0000   0.0000   0.0000   0.0000

          k =-0.1667 0.5000-0.1667 (  1756 PWs)   bands (ev):

   -60.4920 -25.8248 -25.8107 -25.8103 -16.2193  -2.5214  -1.4642  -1.4209
    10.0746  12.1493  13.7621  15.1465  16.2776  18.0766  20.5433  23.3409

     occupation numbers 
     1.0000   1.0000   1.0000   1.0000   1.0000   1.0000   1.0000   1.0000
     0.0000   0.0000   0.0000   0.0000   0.0000   0.0000   0.0000   0.0000

          k = 0.6667-0.3333 0.6667 (  1767 PWs)   bands (ev):

   -60.4919 -25.8337 -25.8123 -25.8104 -16.0914  -3.0663  -1.7234  -1.4827
    10.5651  12.9952  13.3457  14.7651  17.8625  20.0733  20.1620  20.9116

     occupation numbers 
     1.0000   1.0000   1.0000   1.0000   1.0000   1.0000   1.0000   1.0000
     0.0000   0.0000   0.0000   0.0000   0.0000   0.0000   0.0000   0.0000

          k = 0.5000-0.1667 0.5000 (  1771 PWs)   bands (ev):

   -60.4921 -25.8318 -25.8137 -25.8087 -16.1200  -2.9319  -1.7788  -1.3809
    10.5975  13.0021  13.2897  14.7236  17.1700  19.2437  20.1228  20.5951

     occupation numbers 
     1.0000   1.0000   1.0000   1.0000   1.0000   1.0000   1.0000   1.0000
     0.0000   0.0000   0.0000   0.0000   0.0000   0.0000   0.0000   0.0000

          k = 0.3333 0.0000 0.3333 (  1773 PWs)   bands (ev):

   -60.4924 -25.8222 -25.8116 -25.8073 -16.2748  -2.2923  -1.4970  -1.2092
     9.6516  12.5531  14.1557  15.1527  15.3075  17.6483  20.6288  21.1903

     occupation numbers 
     1.0000   1.0000   1.0000   1.0000   1.0000   1.0000   1.0000   1.0000
     0.0000   0.0000   0.0000   0.0000   0.0000   0.0000   0.0000   0.0000

          k = 0.0000 0.6667 0.0000 (  1752 PWs)   bands (ev):

   -60.4919 -25.8243 -25.8135 -25.8135 -16.1487  -2.6880  -1.6061  -1.6061
    10.4920  11.1467  13.6274  16.6758  16.6758  18.2717  23.0382  23.0382

     occupation numbers 
     1.0000   1.0000   1.0000   1.0000   1.0000   1.0000   1.0000   1.0000
     0.0000   0.0000   0.0000   0.0000   0.0000   0.0000   0.0000   0.0000

          k = 0.8333-0.1667 0.8333 (  1758 PWs)   bands (ev):

   -60.4917 -25.8269 -25.8172 -25.8138 -16.0633  -2.8621  -1.9801  -1.6767
    10.8077  11.4040  13.6121  16.4928  17.4361  20.1536  20.9186  20.9844

     occupation numbers 
     1.0000   1.0000   1.0000   1.0000   1.0000   1.0000   1.0000   1.0000
     0.0000   0.0000   0.0000   0.0000   0.0000   0.0000   0.0000   0.0000

          k = 0.6667-0.0000 0.6667 (  1766 PWs)   bands (ev):

   -60.4919 -25.8263 -25.8218 -25.8115 -16.0480  -2.5980  -2.4976  -1.5689
    11.3195  12.4209  13.1185  15.6837  16.9509  18.1338  22.2714  22.6054

     occupation numbers 
     1.0000   1.0000   1.0000   1.0000   1.0000   1.0000   1.0000   1.0000
     0.0000   0.0000   0.0000   0.0000   0.0000   0.0000   0.0000   0.0000

          k = 0.0000-1.0000 0.0000 (  1756 PWs)   bands (ev):

   -60.4916 -25.8276 -25.8155 -25.8155 -16.0491  -3.0137  -1.7690  -1.7690
    10.4049  10.6230  14.4664  18.2825  18.2825  19.1039  21.0489  21.0489

     occupation numbers 
     1.0000   1.0000   1.0000   1.0000   1.0000   1.0000   1.0000   1.0000
     0.0000   0.0000   0.0000   0.0000   0.0000   0.0000   0.0000   0.0000

          k = 0.6667-0.3333 1.0000 (  1764 PWs)   bands (ev):

   -60.4919 -25.8274 -25.8162 -25.8113 -16.1065  -2.7504  -1.9337  -1.5630
    11.2766  11.9103  12.8400  15.6495  16.9371  19.5076  20.5188  22.5478

     occupation numbers 
     1.0000   1.0000   1.0000   1.0000   1.0000   1.0000   1.0000   1.0000
     0.0000   0.0000   0.0000   0.0000   0.0000   0.0000   0.0000   0.0000

          k = 0.5000-0.1667 0.8333 (  1756 PWs)   bands (ev):

   -60.4917 -25.8280 -25.8183 -25.8131 -16.0486  -2.7712  -2.2126  -1.6887
    11.6897  12.2221  12.8819  15.1299  17.5628  19.1861  20.5524  22.9769

     occupation numbers 
     1.0000   1.0000   1.0000   1.0000   1.0000   1.0000   1.0000   1.0000
     0.0000   0.0000   0.0000   0.0000   0.0000   0.0000   0.0000   0.0000

          k =-0.3333-1.0000 0.0000 (  1766 PWs)   bands (ev):

   -60.4917 -25.8246 -25.8185 -25.8171 -16.0347  -2.7461  -2.1315  -1.8947
    11.3689  11.5787  13.4963  15.3505  18.7006  19.9803  20.0019  21.1253

     occupation numbers 
     1.0000   1.0000   1.0000   1.0000   1.0000   1.0000   1.0000   1.0000
     0.0000   0.0000   0.0000   0.0000   0.0000   0.0000   0.0000   0.0000

     highest occupied, lowest unoccupied level (ev):    -1.0552    7.6483

!    total energy              =    -115.80110914 Ry
     estimated scf accuracy    <          1.4E-09 Ry

     convergence has been achieved in   4 iterations

     Using ACE for calculation of exact exchange
     ACE projected onto    16 (nbndproj) and applied to    16 (nbnd) bands

     total energy              =    -115.80112787 Ry
     Harris-Foulkes estimate   =    -115.80112787 Ry
     est. exchange err (dexx)  =       0.00001873 Ry
     - averaged Fock potential =      20.80519890 Ry
     + Fock energy (ACE)       =     -10.40571851 Ry

     EXX: now go back to refine exchange calculation

     total cpu time spent up to now is      540.7 secs

     Self-consistent Calculation

     iteration #  1     ecut=    50.00 Ry     beta= 0.70
     Davidson diagonalization with overlap

---- Real-time Memory Report at c_bands before calling an iterative solver
           795 MiB given to the printing process from OS
             0 MiB allocation reported by mallinfo(arena+hblkhd)
         10691 MiB available memory on the node where the printing process lives
------------------
     ethr =  7.03E-10,  avg # of iterations =  3.2

     total cpu time spent up to now is      540.9 secs

     total energy              =    -115.80113123 Ry
     estimated scf accuracy    <       0.00000098 Ry

     iteration #  2     ecut=    50.00 Ry     beta= 0.70
     Davidson diagonalization with overlap

---- Real-time Memory Report at c_bands before calling an iterative solver
           795 MiB given to the printing process from OS
             0 MiB allocation reported by mallinfo(arena+hblkhd)
         10689 MiB available memory on the node where the printing process lives
------------------
     ethr =  6.15E-09,  avg # of iterations =  2.0

     total cpu time spent up to now is      541.0 secs

     total energy              =    -115.80113141 Ry
     estimated scf accuracy    <       0.00000006 Ry

     iteration #  3     ecut=    50.00 Ry     beta= 0.70
     Davidson diagonalization with overlap

---- Real-time Memory Report at c_bands before calling an iterative solver
           795 MiB given to the printing process from OS
             0 MiB allocation reported by mallinfo(arena+hblkhd)
         10688 MiB available memory on the node where the printing process lives
------------------
     ethr =  4.04E-10,  avg # of iterations =  2.0

     total cpu time spent up to now is      541.1 secs

     End of self-consistent calculation

          k = 0.0000 0.0000 0.0000 (  1807 PWs)   bands (ev):

   -60.4937 -25.8100 -25.8100 -25.8100 -16.4870  -1.0595  -1.0595  -1.0595
     7.6624  14.1041  14.1041  14.1041  16.7050  16.7050  17.5578  20.7444

     occupation numbers 
     1.0000   1.0000   1.0000   1.0000   1.0000   1.0000   1.0000   1.0000
     0.0000   0.0000   0.0000   0.0000   0.0000   0.0000   0.0000   0.0000

          k =-0.1667 0.1667-0.1667 (  1781 PWs)   bands (ev):

   -60.4931 -25.8178 -25.8102 -25.8102 -16.3956  -1.7314  -1.1445  -1.1445
     8.5466  13.1856  14.4440  14.4440  16.3345  16.3345  19.0738  20.6777

     occupation numbers 
     1.0000   1.0000   1.0000   1.0000   1.0000   1.0000   1.0000   1.0000
     0.0000   0.0000   0.0000   0.0000   0.0000   0.0000   0.0000   0.0000

          k =-0.3333 0.3333-0.3333 (  1760 PWs)   bands (ev):

   -60.4925 -25.8332 -25.8110 -25.8110 -16.2035  -2.8208  -1.3055  -1.3055
     9.7084  13.0927  14.3412  14.3412  17.4662  17.4662  18.5036  23.2942

     occupation numbers 
     1.0000   1.0000   1.0000   1.0000   1.0000   1.0000   1.0000   1.0000
     0.0000   0.0000   0.0000   0.0000   0.0000   0.0000   0.0000   0.0000

          k = 0.5000-0.5000 0.5000 (  1772 PWs)   bands (ev):

   -60.4924 -25.8408 -25.8113 -25.8113 -16.1042  -3.2911  -1.3829  -1.3829
     9.8771  13.8790  14.1081  14.1081  18.1464  20.0930  20.0930  20.5443

     occupation numbers 
     1.0000   1.0000   1.0000   1.0000   1.0000   1.0000   1.0000   1.0000
     0.0000   0.0000   0.0000   0.0000   0.0000   0.0000   0.0000   0.0000

          k = 0.0000 0.3333 0.0000 (  1792 PWs)   bands (ev):

   -60.4932 -25.8166 -25.8119 -25.8119 -16.3692  -1.7514  -1.2554  -1.2554
     8.8498  12.6408  14.8494  14.8494  15.0376  17.1415  20.0572  21.5143

     occupation numbers 
     1.0000   1.0000   1.0000   1.0000   1.0000   1.0000   1.0000   1.0000
     0.0000   0.0000   0.0000   0.0000   0.0000   0.0000   0.0000   0.0000

          k =-0.1667 0.5000-0.1667 (  1756 PWs)   bands (ev):

   -60.4924 -25.8273 -25.8133 -25.8129 -16.2187  -2.5206  -1.4672  -1.4242
    10.0827  12.1546  13.7668  15.1497  16.2806  18.0782  20.5475  23.3406

     occupation numbers 
     1.0000   1.0000   1.0000   1.0000   1.0000   1.0000   1.0000   1.0000
     0.0000   0.0000   0.0000   0.0000   0.0000   0.0000   0.0000   0.0000

          k = 0.6667-0.3333 0.6667 (  1767 PWs)   bands (ev):

   -60.4923 -25.8362 -25.8149 -25.8130 -16.0910  -3.0645  -1.7256  -1.4859
    10.5724  13.0007  13.3502  14.7685  17.8661  20.0711  20.1666  20.9122

     occupation numbers 
     1.0000   1.0000   1.0000   1.0000   1.0000   1.0000   1.0000   1.0000
     0.0000   0.0000   0.0000   0.0000   0.0000   0.0000   0.0000   0.0000

          k = 0.5000-0.1667 0.5000 (  1771 PWs)   bands (ev):

   -60.4924 -25.8343 -25.8163 -25.8113 -16.1196  -2.9302  -1.7808  -1.3844
    10.6047  13.0069  13.2949  14.7270  17.1723  19.2479  20.1262  20.5958

     occupation numbers 
     1.0000   1.0000   1.0000   1.0000   1.0000   1.0000   1.0000   1.0000
     0.0000   0.0000   0.0000   0.0000   0.0000   0.0000   0.0000   0.0000

          k = 0.3333 0.0000 0.3333 (  1773 PWs)   bands (ev):

   -60.4927 -25.8248 -25.8142 -25.8099 -16.2741  -2.2918  -1.4998  -1.2131
     9.6602  12.5581  14.1598  15.1557  15.3107  17.6505  20.6324  21.1933

     occupation numbers 
     1.0000   1.0000   1.0000   1.0000   1.0000   1.0000   1.0000   1.0000
     0.0000   0.0000   0.0000   0.0000   0.0000   0.0000   0.0000   0.0000

          k = 0.0000 0.6667 0.0000 (  1752 PWs)   bands (ev):

   -60.4922 -25.8268 -25.8161 -25.8161 -16.1482  -2.6871  -1.6090  -1.6090
    10.5002  11.1528  13.6322  16.6789  16.6789  18.2728  23.0388  23.0388

     occupation numbers 
     1.0000   1.0000   1.0000   1.0000   1.0000   1.0000   1.0000   1.0000
     0.0000   0.0000   0.0000   0.0000   0.0000   0.0000   0.0000   0.0000

          k = 0.8333-0.1667 0.8333 (  1758 PWs)   bands (ev):

   -60.4920 -25.8295 -25.8198 -25.8164 -16.0630  -2.8612  -1.9817  -1.6795
    10.8153  11.4102  13.6167  16.4959  17.4404  20.1538  20.9207  20.9839

     occupation numbers 
     1.0000   1.0000   1.0000   1.0000   1.0000   1.0000   1.0000   1.0000
     0.0000   0.0000   0.0000   0.0000   0.0000   0.0000   0.0000   0.0000

          k = 0.6667-0.0000 0.6667 (  1766 PWs)   bands (ev):

   -60.4922 -25.8288 -25.8244 -25.8141 -16.0477  -2.5975  -2.4978  -1.5719
    11.3261  12.4267  13.1230  15.6870  16.9552  18.1354  22.2729  22.6039

     occupation numbers 
     1.0000   1.0000   1.0000   1.0000   1.0000   1.0000   1.0000   1.0000
     0.0000   0.0000   0.0000   0.0000   0.0000   0.0000   0.0000   0.0000

          k = 0.0000-1.0000 0.0000 (  1756 PWs)   bands (ev):

   -60.4919 -25.8302 -25.8181 -25.8181 -16.0488  -3.0127  -1.7715  -1.7715
    10.4139  10.6295  14.4710  18.2869  18.2869  19.1044  21.0480  21.0480

     occupation numbers 
     1.0000   1.0000   1.0000   1.0000   1.0000   1.0000   1.0000   1.0000
     0.0000   0.0000   0.0000   0.0000   0.0000   0.0000   0.0000   0.0000

          k = 0.6667-0.3333 1.0000 (  1764 PWs)   bands (ev):

   -60.4922 -25.8299 -25.8188 -25.8139 -16.1061  -2.7493  -1.9354  -1.5658
    11.2834  11.9155  12.8455  15.6529  16.9398  19.5110  20.5188  22.5434

     occupation numbers 
     1.0000   1.0000   1.0000   1.0000   1.0000   1.0000   1.0000   1.0000
     0.0000   0.0000   0.0000   0.0000   0.0000   0.0000   0.0000   0.0000

          k = 0.5000-0.1667 0.8333 (  1756 PWs)   bands (ev):

   -60.4920 -25.8306 -25.8209 -25.8157 -16.0484  -2.7703  -2.2135  -1.6911
[...]
     0.0000   0.0000   0.0000   0.0000   0.0000   0.0000   0.0000   0.0000

     highest occupied, lowest unoccupied level (ev):    -1.0595    7.6624

!    total energy              =    -115.80113143 Ry
     estimated scf accuracy    <          4.8E-09 Ry

     convergence has been achieved in   3 iterations

     Using ACE for calculation of exact exchange
     ACE projected onto    16 (nbndproj) and applied to    16 (nbnd) bands

     total energy              =    -115.80113213 Ry
     Harris-Foulkes estimate   =    -115.80113213 Ry
     est. exchange err (dexx)  =       0.00000071 Ry
     - averaged Fock potential =      20.81269906 Ry
     + Fock energy (ACE)       =     -10.40698125 Ry

     EXX: now go back to refine exchange calculation

     total cpu time spent up to now is      720.3 secs

     Self-consistent Calculation

     iteration #  1     ecut=    50.00 Ry     beta= 0.70
     Davidson diagonalization with overlap

---- Real-time Memory Report at c_bands before calling an iterative solver
           795 MiB given to the printing process from OS
             0 MiB allocation reported by mallinfo(arena+hblkhd)
         10692 MiB available memory on the node where the printing process lives
------------------
     ethr =  4.04E-10,  avg # of iterations =  2.0

     total cpu time spent up to now is      720.4 secs

     total energy              =    -115.80113226 Ry
     estimated scf accuracy    <       0.00000004 Ry

     iteration #  2     ecut=    50.00 Ry     beta= 0.70
     Davidson diagonalization with overlap

---- Real-time Memory Report at c_bands before calling an iterative solver
           795 MiB given to the printing process from OS
             0 MiB allocation reported by mallinfo(arena+hblkhd)
         10691 MiB available memory on the node where the printing process lives
------------------
     ethr =  2.29E-10,  avg # of iterations =  2.0

     total cpu time spent up to now is      720.5 secs

     End of self-consistent calculation

          k = 0.0000 0.0000 0.0000 (  1807 PWs)   bands (ev):

   -60.4940 -25.8107 -25.8107 -25.8107 -16.4860  -1.0598  -1.0598  -1.0598
     7.6654  14.1050  14.1050  14.1050  16.7056  16.7056  17.5590  20.7452

     occupation numbers 
     1.0000   1.0000   1.0000   1.0000   1.0000   1.0000   1.0000   1.0000
     0.0000   0.0000   0.0000   0.0000   0.0000   0.0000   0.0000   0.0000

          k =-0.1667 0.1667-0.1667 (  1781 PWs)   bands (ev):

   -60.4934 -25.8185 -25.8109 -25.8109 -16.3946  -1.7312  -1.1448  -1.1448
     8.5490  13.1867  14.4449  14.4449  16.3352  16.3352  19.0749  20.6786

     occupation numbers 
     1.0000   1.0000   1.0000   1.0000   1.0000   1.0000   1.0000   1.0000
     0.0000   0.0000   0.0000   0.0000   0.0000   0.0000   0.0000   0.0000

          k =-0.3333 0.3333-0.3333 (  1760 PWs)   bands (ev):

   -60.4928 -25.8339 -25.8117 -25.8117 -16.2025  -2.8201  -1.3057  -1.3057
     9.7104  13.0938  14.3420  14.3420  17.4669  17.4669  18.5047  23.2945

     occupation numbers 
     1.0000   1.0000   1.0000   1.0000   1.0000   1.0000   1.0000   1.0000
     0.0000   0.0000   0.0000   0.0000   0.0000   0.0000   0.0000   0.0000

          k = 0.5000-0.5000 0.5000 (  1772 PWs)   bands (ev):

   -60.4927 -25.8415 -25.8120 -25.8120 -16.1033  -3.2903  -1.3831  -1.3831
     9.8790  13.8802  14.1090  14.1090  18.1476  20.0932  20.0932  20.5453

     occupation numbers 
     1.0000   1.0000   1.0000   1.0000   1.0000   1.0000   1.0000   1.0000
     0.0000   0.0000   0.0000   0.0000   0.0000   0.0000   0.0000   0.0000

          k = 0.0000 0.3333 0.0000 (  1792 PWs)   bands (ev):

   -60.4935 -25.8173 -25.8126 -25.8126 -16.3682  -1.7512  -1.2556  -1.2556
     8.8521  12.6420  14.8503  14.8503  15.0385  17.1421  20.0582  21.5151

     occupation numbers 
     1.0000   1.0000   1.0000   1.0000   1.0000   1.0000   1.0000   1.0000
     0.0000   0.0000   0.0000   0.0000   0.0000   0.0000   0.0000   0.0000

          k =-0.1667 0.5000-0.1667 (  1756 PWs)   bands (ev):

   -60.4927 -25.8280 -25.8140 -25.8136 -16.2177  -2.5200  -1.4673  -1.4243
    10.0846  12.1558  13.7678  15.1505  16.2814  18.0788  20.5484  23.3403

     occupation numbers 
     1.0000   1.0000   1.0000   1.0000   1.0000   1.0000   1.0000   1.0000
     0.0000   0.0000   0.0000   0.0000   0.0000   0.0000   0.0000   0.0000

          k = 0.6667-0.3333 0.6667 (  1767 PWs)   bands (ev):

   -60.4926 -25.8369 -25.8156 -25.8137 -16.0901  -3.0637  -1.7256  -1.4860
    10.5740  13.0019  13.3513  14.7694  17.8670  20.0708  20.1675  20.9127

     occupation numbers 
     1.0000   1.0000   1.0000   1.0000   1.0000   1.0000   1.0000   1.0000
     0.0000   0.0000   0.0000   0.0000   0.0000   0.0000   0.0000   0.0000

          k = 0.5000-0.1667 0.5000 (  1771 PWs)   bands (ev):

   -60.4927 -25.8350 -25.8170 -25.8120 -16.1187  -2.9295  -1.7807  -1.3846
    10.6064  13.0080  13.2960  14.7279  17.1729  19.2489  20.1270  20.5962

     occupation numbers 
     1.0000   1.0000   1.0000   1.0000   1.0000   1.0000   1.0000   1.0000
     0.0000   0.0000   0.0000   0.0000   0.0000   0.0000   0.0000   0.0000

          k = 0.3333 0.0000 0.3333 (  1773 PWs)   bands (ev):

   -60.4930 -25.8255 -25.8149 -25.8106 -16.2732  -2.2913  -1.4999  -1.2134
     9.6622  12.5593  14.1608  15.1565  15.3114  17.6512  20.6333  21.1940

     occupation numbers 
     1.0000   1.0000   1.0000   1.0000   1.0000   1.0000   1.0000   1.0000
     0.0000   0.0000   0.0000   0.0000   0.0000   0.0000   0.0000   0.0000

          k = 0.0000 0.6667 0.0000 (  1752 PWs)   bands (ev):

   -60.4925 -25.8275 -25.8168 -25.8168 -16.1473  -2.6865  -1.6091  -1.6091
    10.5020  11.1543  13.6333  16.6798  16.6798  18.2733  23.0392  23.0392

     occupation numbers 
     1.0000   1.0000   1.0000   1.0000   1.0000   1.0000   1.0000   1.0000
     0.0000   0.0000   0.0000   0.0000   0.0000   0.0000   0.0000   0.0000

          k = 0.8333-0.1667 0.8333 (  1758 PWs)   bands (ev):

   -60.4923 -25.8302 -25.8205 -25.8171 -16.0621  -2.8606  -1.9816  -1.6795
    10.8169  11.4116  13.6179  16.4967  17.4414  20.1542  20.9214  20.9841

     occupation numbers 
     1.0000   1.0000   1.0000   1.0000   1.0000   1.0000   1.0000   1.0000
     0.0000   0.0000   0.0000   0.0000   0.0000   0.0000   0.0000   0.0000

          k = 0.6667-0.0000 0.6667 (  1766 PWs)   bands (ev):

   -60.4925 -25.8295 -25.8251 -25.8148 -16.0468  -2.5969  -2.4974  -1.5721
    11.3276  12.4280  13.1242  15.6878  16.9563  18.1359  22.2736  22.6039

     occupation numbers 
     1.0000   1.0000   1.0000   1.0000   1.0000   1.0000   1.0000   1.0000
     0.0000   0.0000   0.0000   0.0000   0.0000   0.0000   0.0000   0.0000

          k = 0.0000-1.0000 0.0000 (  1756 PWs)   bands (ev):

   -60.4922 -25.8309 -25.8188 -25.8188 -16.0479  -3.0121  -1.7715  -1.7715
    10.4158  10.6310  14.4721  18.2879  18.2879  19.1049  21.0482  21.0482

     occupation numbers 
     1.0000   1.0000   1.0000   1.0000   1.0000   1.0000   1.0000   1.0000
     0.0000   0.0000   0.0000   0.0000   0.0000   0.0000   0.0000   0.0000

          k = 0.6667-0.3333 1.0000 (  1764 PWs)   bands (ev):

   -60.4925 -25.8306 -25.8195 -25.8146 -16.1052  -2.7487  -1.9353  -1.5659
    11.2849  11.9168  12.8467  15.6538  16.9406  19.5118  20.5192  22.5424

     occupation numbers 
     1.0000   1.0000   1.0000   1.0000   1.0000   1.0000   1.0000   1.0000
     0.0000   0.0000   0.0000   0.0000   0.0000   0.0000   0.0000   0.0000

          k = 0.5000-0.1667 0.8333 (  1756 PWs)   bands (ev):

   -60.4923 -25.8313 -25.8216 -25.8164 -16.0475  -2.7697  -2.2132  -1.6911
    11.6968  12.2298  12.8877  15.1348  17.5667  19.1898  20.5533  22.9784

     occupation numbers 
     1.0000   1.0000   1.0000   1.0000   1.0000   1.0000   1.0000   1.0000
     0.0000   0.0000   0.0000   0.0000   0.0000   0.0000   0.0000   0.0000

          k =-0.3333-1.0000 0.0000 (  1766 PWs)   bands (ev):

   -60.4924 -25.8278 -25.8218 -25.8204 -16.0335  -2.7452  -2.1325  -1.8962
    11.3779  11.5855  13.5019  15.3559  18.7056  19.9830  20.0041  21.1245

     occupation numbers 
     1.0000   1.0000   1.0000   1.0000   1.0000   1.0000   1.0000   1.0000
     0.0000   0.0000   0.0000   0.0000   0.0000   0.0000   0.0000   0.0000

     highest occupied, lowest unoccupied level (ev):    -1.0598    7.6654

!    total energy              =    -115.80113226 Ry
     estimated scf accuracy    <          2.3E-09 Ry

     convergence has been achieved in   2 iterations

     Using ACE for calculation of exact exchange
     ACE projected onto    16 (nbndproj) and applied to    16 (nbnd) bands

     total energy              =    -115.80113229 Ry
     Harris-Foulkes estimate   =    -115.80113229 Ry
     est. exchange err (dexx)  =       0.00000003 Ry
     - averaged Fock potential =      20.81418602 Ry
     + Fock energy (ACE)       =     -10.40720479 Ry

     EXX: now go back to refine exchange calculation

     total cpu time spent up to now is      899.7 secs

     Self-consistent Calculation

     iteration #  1     ecut=    50.00 Ry     beta= 0.70
     Davidson diagonalization with overlap

---- Real-time Memory Report at c_bands before calling an iterative solver
           795 MiB given to the printing process from OS
             0 MiB allocation reported by mallinfo(arena+hblkhd)
         10693 MiB available memory on the node where the printing process lives
------------------
     ethr =  2.29E-10,  avg # of iterations =  2.0

     total cpu time spent up to now is      899.8 secs

     End of self-consistent calculation

          k = 0.0000 0.0000 0.0000 (  1807 PWs)   bands (ev):

   -60.4941 -25.8108 -25.8108 -25.8108 -16.4864  -1.0604  -1.0604  -1.0604
     7.6659  14.1051  14.1051  14.1051  16.7056  16.7056  17.5594  20.7454

     occupation numbers 
     1.0000   1.0000   1.0000   1.0000   1.0000   1.0000   1.0000   1.0000
     0.0000   0.0000   0.0000   0.0000   0.0000   0.0000   0.0000   0.0000

          k =-0.1667 0.1667-0.1667 (  1781 PWs)   bands (ev):

   -60.4935 -25.8186 -25.8111 -25.8111 -16.3950  -1.7316  -1.1454  -1.1454
     8.5494  13.1868  14.4449  14.4449  16.3352  16.3352  19.0751  20.6788

     occupation numbers 
     1.0000   1.0000   1.0000   1.0000   1.0000   1.0000   1.0000   1.0000
     0.0000   0.0000   0.0000   0.0000   0.0000   0.0000   0.0000   0.0000

          k =-0.3333 0.3333-0.3333 (  1760 PWs)   bands (ev):

   -60.4929 -25.8340 -25.8118 -25.8118 -16.2030  -2.8204  -1.3063  -1.3063
     9.7107  13.0939  14.3421  14.3421  17.4669  17.4669  18.5050  23.2943

     occupation numbers 
     1.0000   1.0000   1.0000   1.0000   1.0000   1.0000   1.0000   1.0000
     0.0000   0.0000   0.0000   0.0000   0.0000   0.0000   0.0000   0.0000

          k = 0.5000-0.5000 0.5000 (  1772 PWs)   bands (ev):

   -60.4929 -25.8416 -25.8121 -25.8121 -16.1037  -3.2905  -1.3836  -1.3836
     9.8793  13.8802  14.1091  14.1091  18.1479  20.0931  20.0931  20.5455

     occupation numbers 
     1.0000   1.0000   1.0000   1.0000   1.0000   1.0000   1.0000   1.0000
     0.0000   0.0000   0.0000   0.0000   0.0000   0.0000   0.0000   0.0000

          k = 0.0000 0.3333 0.0000 (  1792 PWs)   bands (ev):

   -60.4936 -25.8174 -25.8128 -25.8128 -16.3686  -1.7516  -1.2562  -1.2562
     8.8524  12.6421  14.8503  14.8503  15.0386  17.1421  20.0584  21.5152

     occupation numbers 
     1.0000   1.0000   1.0000   1.0000   1.0000   1.0000   1.0000   1.0000
     0.0000   0.0000   0.0000   0.0000   0.0000   0.0000   0.0000   0.0000

          k =-0.1667 0.5000-0.1667 (  1756 PWs)   bands (ev):

   -60.4928 -25.8281 -25.8141 -25.8137 -16.2182  -2.5203  -1.4679  -1.4249
    10.0848  12.1560  13.7679  15.1505  16.2814  18.0787  20.5486  23.3398

     occupation numbers 
     1.0000   1.0000   1.0000   1.0000   1.0000   1.0000   1.0000   1.0000
     0.0000   0.0000   0.0000   0.0000   0.0000   0.0000   0.0000   0.0000

          k = 0.6667-0.3333 0.6667 (  1767 PWs)   bands (ev):

   -60.4927 -25.8370 -25.8157 -25.8138 -16.0906  -3.0640  -1.7261  -1.4866
    10.5743  13.0020  13.3514  14.7694  17.8671  20.0705  20.1677  20.9126

     occupation numbers 
     1.0000   1.0000   1.0000   1.0000   1.0000   1.0000   1.0000   1.0000
     0.0000   0.0000   0.0000   0.0000   0.0000   0.0000   0.0000   0.0000

          k = 0.5000-0.1667 0.5000 (  1771 PWs)   bands (ev):

   -60.4928 -25.8351 -25.8171 -25.8121 -16.1191  -2.9298  -1.7812  -1.3851
    10.6066  13.0081  13.2962  14.7280  17.1730  19.2491  20.1271  20.5961

     occupation numbers 
     1.0000   1.0000   1.0000   1.0000   1.0000   1.0000   1.0000   1.0000
     0.0000   0.0000   0.0000   0.0000   0.0000   0.0000   0.0000   0.0000

          k = 0.3333 0.0000 0.3333 (  1773 PWs)   bands (ev):

   -60.4931 -25.8256 -25.8150 -25.8107 -16.2736  -2.2917  -1.5005  -1.2140
     9.6624  12.5594  14.1609  15.1566  15.3115  17.6512  20.6335  21.1941

     occupation numbers 
     1.0000   1.0000   1.0000   1.0000   1.0000   1.0000   1.0000   1.0000
     0.0000   0.0000   0.0000   0.0000   0.0000   0.0000   0.0000   0.0000

          k = 0.0000 0.6667 0.0000 (  1752 PWs)   bands (ev):

   -60.4926 -25.8276 -25.8169 -25.8169 -16.1478  -2.6868  -1.6096  -1.6096
    10.5022  11.1545  13.6334  16.6798  16.6798  18.2732  23.0390  23.0390

     occupation numbers 
     1.0000   1.0000   1.0000   1.0000   1.0000   1.0000   1.0000   1.0000
     0.0000   0.0000   0.0000   0.0000   0.0000   0.0000   0.0000   0.0000

          k = 0.8333-0.1667 0.8333 (  1758 PWs)   bands (ev):

   -60.4925 -25.8303 -25.8206 -25.8172 -16.0626  -2.8609  -1.9820  -1.6800
    10.8172  11.4118  13.6180  16.4967  17.4415  20.1540  20.9214  20.9839

     occupation numbers 
     1.0000   1.0000   1.0000   1.0000   1.0000   1.0000   1.0000   1.0000
     0.0000   0.0000   0.0000   0.0000   0.0000   0.0000   0.0000   0.0000

          k = 0.6667-0.0000 0.6667 (  1766 PWs)   bands (ev):

   -60.4927 -25.8296 -25.8252 -25.8149 -16.0473  -2.5973  -2.4977  -1.5726
    11.3279  12.4281  13.1243  15.6879  16.9564  18.1359  22.2734  22.6037

     occupation numbers 
     1.0000   1.0000   1.0000   1.0000   1.0000   1.0000   1.0000   1.0000
     0.0000   0.0000   0.0000   0.0000   0.0000   0.0000   0.0000   0.0000

          k = 0.0000-1.0000 0.0000 (  1756 PWs)   bands (ev):

   -60.4923 -25.8310 -25.8189 -25.8189 -16.0484  -3.0124  -1.7720  -1.7720
    10.4161  10.6312  14.4722  18.2880  18.2880  19.1047  21.0479  21.0479

     occupation numbers 
     1.0000   1.0000   1.0000   1.0000   1.0000   1.0000   1.0000   1.0000
     0.0000   0.0000   0.0000   0.0000   0.0000   0.0000   0.0000   0.0000

          k = 0.6667-0.3333 1.0000 (  1764 PWs)   bands (ev):

   -60.4927 -25.8307 -25.8196 -25.8147 -16.1057  -2.7490  -1.9358  -1.5664
    11.2851  11.9170  12.8469  15.6538  16.9406  19.5119  20.5190  22.5420

     occupation numbers 
     1.0000   1.0000   1.0000   1.0000   1.0000   1.0000   1.0000   1.0000
     0.0000   0.0000   0.0000   0.0000   0.0000   0.0000   0.0000   0.0000

          k = 0.5000-0.1667 0.8333 (  1756 PWs)   bands (ev):

   -60.4924 -25.8314 -25.8217 -25.8165 -16.0479  -2.7701  -2.2136  -1.6916
    11.6970  12.2300  12.8878  15.1349  17.5668  19.1899  20.5531  22.9782

     occupation numbers 
     1.0000   1.0000   1.0000   1.0000   1.0000   1.0000   1.0000   1.0000
     0.0000   0.0000   0.0000   0.0000   0.0000   0.0000   0.0000   0.0000

          k =-0.3333-1.0000 0.0000 (  1766 PWs)   bands (ev):

   -60.4925 -25.8279 -25.8219 -25.8205 -16.0340  -2.7455  -2.1330  -1.8967
    11.3781  11.5856  13.5019  15.3560  18.7057  19.9830  20.0041  21.1242

     occupation numbers 
     1.0000   1.0000   1.0000   1.0000   1.0000   1.0000   1.0000   1.0000
     0.0000   0.0000   0.0000   0.0000   0.0000   0.0000   0.0000   0.0000

     highest occupied, lowest unoccupied level (ev):    -1.0604    7.6659

!    total energy              =    -115.80113230 Ry
     estimated scf accuracy    <          4.5E-09 Ry

     convergence has been achieved in   1 iterations

     Using ACE for calculation of exact exchange
     ACE projected onto    16 (nbndproj) and applied to    16 (nbnd) bands

!!   total energy              =    -115.80113230 Ry
     Harris-Foulkes estimate   =    -115.80113230 Ry
     est. exchange err (dexx)  =          2.4E-09 Ry
     - averaged Fock potential =      20.81450244 Ry
     + Fock energy (ACE)       =     -10.40729765 Ry

     EXX self-consistency reached

     Writing all to output data dir ./out_fg/naclfg.save/ :
     XML data file, charge density, pseudopotentials, collected wavefunctions

     init_run     :      0.21s CPU      0.22s WALL (       1 calls)
     electrons    :      2.86s CPU      3.09s WALL (       6 calls)

     Called by init_run:
     aceinit0     :      0.00s CPU      0.00s WALL (       1 calls)
     wfcinit      :      0.03s CPU      0.04s WALL (       1 calls)
     wfcinit:wfcr :      0.03s CPU      0.04s WALL (      16 calls)
     potinit      :      0.00s CPU      0.01s WALL (       1 calls)
     hinit0       :      0.17s CPU      0.17s WALL (       1 calls)

     Called by electrons:
     c_bands      :      2.36s CPU      2.57s WALL (      23 calls)
     sum_band     :      0.38s CPU      0.39s WALL (      23 calls)
     v_of_rho     :      0.12s CPU      0.12s WALL (      24 calls)
     v_h          :      0.00s CPU      0.00s WALL (      24 calls)
     v_xc         :      0.11s CPU      0.12s WALL (      24 calls)
     mix_rho      :      0.00s CPU      0.00s WALL (      23 calls)

     Called by c_bands:
     init_us_2    :      0.03s CPU      0.04s WALL (     752 calls)
     cegterg      :      2.31s CPU      2.51s WALL (     368 calls)

     Called by sum_band:
     sum_band:wei :      0.00s CPU      0.00s WALL (      23 calls)
     sum_band:loo :      0.37s CPU      0.38s WALL (      23 calls)
     sum_band:buf :      0.00s CPU      0.00s WALL (     368 calls)
     sum_band:ini :      0.02s CPU      0.02s WALL (     368 calls)

     Called by *egterg:
     cdiaghg      :      0.18s CPU      0.20s WALL (    1348 calls)
     cegterg:over :      0.07s CPU      0.08s WALL (    1076 calls)
     cegterg:upda :      0.03s CPU      0.03s WALL (    1076 calls)
     cegterg:last :      0.05s CPU      0.05s WALL (     897 calls)
     h_psi        :      1.94s CPU      2.11s WALL (    1460 calls)
     g_psi        :      0.02s CPU      0.02s WALL (    1076 calls)

     Called by h_psi:
     h_psi:calbec :      0.05s CPU      0.05s WALL (    1460 calls)
     vloc_psi     :      1.82s CPU      1.98s WALL (    1460 calls)
                                        0.00s GPU  (    1460 calls)
     add_vuspsi   :      0.02s CPU      0.02s WALL (    1460 calls)

     General routines
     calbec       :      0.09s CPU      0.10s WALL (    2790 calls)
     fft          :      0.17s CPU      0.17s WALL (     233 calls)
     ffts         :      0.00s CPU      0.00s WALL (      23 calls)
     fftw         :      1.97s CPU      2.13s WALL (   38638 calls)
     fftc         :    737.22s CPU    822.34s WALL (10616832 calls)
     fftcw        :      0.22s CPU      0.30s WALL (    4608 calls)

     Parallel routines

     EXX routines
     exx_grid     :      0.00s CPU      0.00s WALL (       1 calls)
     exxinit      :      3.00s CPU      3.86s WALL (       6 calls)
     vexx         :    961.72s CPU   1072.34s WALL (      96 calls)
     matcalc      :      0.04s CPU      0.05s WALL (    1330 calls)
     aceupdate    :      0.00s CPU      0.00s WALL (      96 calls)
     vexxace      :      0.06s CPU      0.06s WALL (    1058 calls)
     aceinit      :    961.73s CPU   1072.36s WALL (      96 calls)

     PWSCF        :  16m 7.85s CPU  17m59.62s WALL


   This run was terminated on:  10:36:38  25Jun2026            

=------------------------------------------------------------------------------=
   JOB DONE.
=------------------------------------------------------------------------------=
