
     Program PWSCF v.7.5 starts on  1Jul2026 at  0: 1:41 

     This program is part of the open-source Quantum ESPRESSO suite
     for quantum simulation of materials; please cite
         "P. Giannozzi et al., J. Phys.:Condens. Matter 21 395502 (2009);
         "P. Giannozzi et al., J. Phys.:Condens. Matter 29 465901 (2017);
         "P. Giannozzi et al., J. Chem. Phys. 152 154105 (2020);
          URL http://www.quantum-espresso.org", 
     in publications or presentations arising from this work. More details at
     http://www.quantum-espresso.org/quote

     Parallel version (MPI & OpenMP), running on      16 processor cores
     Number of MPI processes:                16
     Threads/MPI process:                     1

     MPI processes distributed on     1 nodes
     14203 MiB available memory on the printing compute node when the environment starts

     Reading input from mgo.dm.in

     Current dimensions of program PWSCF are:
     Max number of different atomic species (ntypx) = 10
     Max number of k-points (npk) =  40000
     Max angular momentum in pseudopotentials (lmaxx) =  4

     IMPORTANT: XC functional enforced from input :
     Exchange-correlation= HSE
                           (   1   4  12   4   0   0   0)
     EXX-fraction              =        0.25
     Any further DFT definition will be discarded
     Please, verify this is what you really want

     EXX Screening parameter changed:    1.4968000
     EXX fraction changed:   1.00
     DD-RSH-CAM (LMODELHF) semilocal: AEXX, BEXX =   0.3235  1.0000
     DD-RSH-CAM (LMODELHF) enabled
     AEXX =  0.3235   BEXX =  1.0000   mu(bohr^-1) =  1.4968

     R & G space division:  proc/nbgrp/npool/nimage =      16
     Subspace diagonalization in iterative solution of the eigenvalue problem:
     a serial algorithm will be used

     EXX: q-point mesh:     6    6    6
     EXX: setup a grid of 216 q-points centered on each k-point
     (k+q)-points:
   0.0000000   0.0000000   0.0000000         1    1
  -0.1666667   0.1666667  -0.1666667         2    1
  -0.3333333   0.3333333  -0.3333333         3    1
   0.5000000  -0.5000000   0.5000000         4    1
   0.3333333  -0.3333333   0.3333333         3   -1
   0.1666667  -0.1666667   0.1666667         2   -1
   0.1666667   0.1666667   0.1666667         2    3
   0.0000000   0.3333333   0.0000000         5    1
  -0.1666667   0.5000000  -0.1666667         6    1
   0.6666667  -0.3333333   0.6666667         7    1
   0.5000000  -0.1666667   0.5000000         8    1
   0.3333333   0.0000000   0.3333333         9    1
   0.3333333   0.3333333   0.3333333         3    3
   0.1666667   0.5000000   0.1666667         6    3
   0.0000000   0.6666667   0.0000000        10    1
   0.8333333  -0.1666667   0.8333333        11    1
   0.6666667   0.0000000   0.6666667        12    1
   0.5000000   0.1666667   0.5000000         8   -3
  -0.5000000  -0.5000000  -0.5000000         4    3
  -0.6666667  -0.3333333  -0.6666667         7    3
  -0.8333333  -0.1666667  -0.8333333        11    3
   0.0000000  -1.0000000   0.0000000        13    1
   0.8333333   0.1666667   0.8333333        11   -3
   0.6666667   0.3333333   0.6666667         7   -3
  -0.3333333  -0.3333333  -0.3333333         3   -3
  -0.5000000  -0.1666667  -0.5000000         8    3
  -0.6666667   0.0000000  -0.6666667        12   -1
  -0.8333333   0.1666667  -0.8333333        11   -1
   0.0000000  -0.6666667   0.0000000        10   -1
  -0.1666667  -0.5000000  -0.1666667         6   -3
  -0.1666667  -0.1666667  -0.1666667         2   -3
  -0.3333333   0.0000000  -0.3333333         9   -1
  -0.5000000   0.1666667  -0.5000000         8   -1
  -0.6666667   0.3333333  -0.6666667         7   -1
   0.1666667  -0.5000000   0.1666667         6   -1
   0.0000000  -0.3333333   0.0000000         5   -1
  -0.1666667  -0.1666667   0.1666667         2    4
  -0.3333333   0.0000000   0.0000000         5   -5
  -0.5000000   0.1666667  -0.1666667         6   -5
   0.3333333  -0.6666667   0.6666667         7   -5
   0.1666667  -0.5000000   0.5000000         8   -5
   0.0000000  -0.3333333   0.3333333         9   -5
   0.0000000   0.0000000   0.3333333         5   13
  -0.1666667   0.1666667   0.1666667         2   -2
  -0.3333333   0.3333333   0.0000000         9   13
  -0.5000000   0.5000000  -0.1666667         8   13
  -0.6666667   0.6666667  -0.3333333         7   13
   0.1666667  -0.1666667   0.5000000         6   13
   0.1666667   0.1666667   0.5000000         6  -16
   0.0000000   0.3333333   0.3333333         9   -6
  -0.1666667   0.5000000   0.1666667         6   -2
   0.6666667  -0.3333333   1.0000000        14    1
   0.5000000  -0.1666667   0.8333333        15    1
  -0.6666667   1.0000000  -0.3333333        14   13
  -0.6666667  -0.6666667  -0.3333333         7  -16
   0.1666667   0.5000000   0.5000000         8    7
  -1.0000000  -0.3333333  -0.6666667        14   -9
   0.8333333  -0.1666667  -0.8333333        11   -2
  -0.3333333  -1.0000000   0.0000000        16    1
   0.5000000   0.1666667   0.8333333        15   -3
  -0.5000000  -0.5000000  -0.1666667         8  -16
   0.3333333   0.6666667   0.6666667         7    7
  -0.8333333  -0.1666667  -0.5000000        15   -9
   0.0000000  -1.0000000   0.3333333        16   -9
   0.8333333   0.1666667  -0.8333333        11    4
   0.6666667   0.3333333   1.0000000        14   -3
  -0.3333333  -0.3333333   0.0000000         9   14
  -0.5000000  -0.1666667  -0.1666667         6    7
   0.3333333  -1.0000000   0.6666667        14   22
  -0.8333333   0.1666667  -0.5000000        15   10
  -1.0000000   0.3333333  -0.6666667        14   10
  -0.1666667  -0.5000000   0.1666667         6    4
  -0.3333333  -0.3333333   0.3333333         3    4
  -0.5000000  -0.1666667   0.1666667         6   -8
  -0.6666667   0.0000000   0.0000000        10   -5
   0.1666667  -0.8333333   0.8333333        11   -5
   0.0000000  -0.6666667   0.6666667        12   -5
  -0.1666667  -0.5000000   0.5000000         8    8
  -0.1666667  -0.1666667   0.5000000         6  -14
  -0.3333333   0.0000000   0.3333333         9    2
  -0.5000000   0.1666667   0.1666667         6    6
   0.3333333  -0.6666667   1.0000000        14   -5
   0.1666667  -0.5000000   0.8333333        15   -5
   1.0000000   0.6666667  -0.3333333        14   17
   0.0000000   0.0000000   0.6666667        10   13
  -0.1666667   0.1666667   0.5000000         6   15
  -0.3333333   0.3333333   0.3333333         3   -2
  -0.5000000   0.5000000   0.1666667         8  -15
  -0.6666667   0.6666667   0.0000000        12   13
  -0.8333333   0.8333333  -0.1666667        11   13
  -0.8333333  -0.8333333  -0.1666667        11  -16
  -1.0000000  -0.6666667  -0.3333333        14   18
  -0.1666667   0.5000000   0.5000000         8   -6
   0.6666667  -0.3333333  -0.6666667         7   -2
   0.5000000  -0.1666667  -0.8333333        15   -2
   0.3333333   0.0000000  -1.0000000        16   13
  -0.6666667  -0.6666667   0.0000000        12   14
   0.1666667   0.5000000   0.8333333        15    7
   0.0000000   0.6666667   0.6666667        12   -6
   0.8333333  -0.1666667  -0.5000000        15   12
   0.6666667   0.0000000  -0.6666667        12   -2
   0.5000000   0.1666667  -0.8333333        15    4
  -0.5000000  -0.5000000   0.1666667         8   14
   0.3333333   0.6666667   1.0000000        14    7
   0.1666667   0.8333333   0.8333333        11    7
  -1.0000000   0.0000000  -0.3333333        16   21
   0.8333333   0.1666667  -0.5000000        15  -11
   0.6666667   0.3333333  -0.6666667         7    4
   0.5000000   0.5000000  -0.5000000         4    4
   0.3333333   0.6666667  -0.6666667         7   -8
   0.1666667   0.8333333  -0.8333333        11   -8
  -1.0000000   0.0000000   0.0000000        13    5
  -0.1666667  -0.8333333   0.8333333        11    8
  -0.3333333  -0.6666667   0.6666667         7    8
   0.6666667   0.6666667  -0.3333333         7  -14
  -0.5000000  -0.1666667   0.5000000         8   -4
   0.3333333  -1.0000000  -0.6666667        14  -21
   0.1666667  -0.8333333  -0.8333333        11    6
   1.0000000   0.3333333   0.0000000        16   -5
  -0.1666667  -0.5000000   0.8333333        15    8
   0.8333333   0.8333333  -0.1666667        11  -14
   0.6666667   1.0000000  -0.3333333        14  -14
  -0.5000000   0.1666667   0.5000000         8    2
   0.3333333  -0.6666667  -0.6666667         7    6
   0.1666667  -0.5000000  -0.8333333        15    6
   0.0000000  -0.3333333  -1.0000000        16   17
   0.0000000   0.0000000  -1.0000000        13   13
   0.8333333  -0.8333333  -0.1666667        11   15
   0.6666667  -0.6666667  -0.3333333         7   15
  -0.5000000   0.5000000   0.5000000         4    2
  -0.6666667   0.6666667   0.3333333         7  -15
  -0.8333333   0.8333333   0.1666667        11  -15
  -0.8333333  -0.8333333   0.1666667        11   14
   0.0000000   0.3333333   1.0000000        16  -17
  -0.1666667   0.5000000   0.8333333        15   -6
  -0.3333333   0.6666667   0.6666667         7   -6
   0.5000000  -0.1666667  -0.5000000         8   -2
  -0.6666667  -1.0000000   0.3333333        14   14
  -0.6666667  -0.6666667   0.3333333         7   14
   0.1666667   0.5000000  -0.8333333        15   -8
  -1.0000000  -0.3333333   0.0000000        16    5
  -0.1666667   0.8333333   0.8333333        11   -6
  -0.3333333   1.0000000   0.6666667        14   21
   0.5000000   0.1666667  -0.5000000         8    4
   0.3333333   0.3333333  -0.3333333         3   -4
   0.1666667   0.5000000  -0.5000000         8   -8
   0.0000000   0.6666667  -0.6666667        12    5
  -0.1666667   0.8333333  -0.8333333        11    5
   0.6666667   0.0000000   0.0000000        10    5
   0.5000000   0.1666667  -0.1666667         6    8
   0.5000000   0.5000000  -0.1666667         8  -14
  -0.6666667  -0.3333333   0.6666667         7   -4
  -0.8333333  -0.1666667   0.5000000        15   11
   1.0000000   0.0000000   0.3333333        16  -21
  -0.1666667  -0.8333333  -0.8333333        11   -7
  -0.3333333  -0.6666667  -1.0000000        14   -7
   0.6666667   0.6666667   0.0000000        12  -14
  -0.5000000  -0.1666667   0.8333333        15   -4
  -0.6666667   0.0000000   0.6666667        12    2
  -0.8333333   0.1666667   0.5000000        15  -12
   0.0000000  -0.6666667  -0.6666667        12    6
  -0.1666667  -0.5000000  -0.8333333        15   -7
   0.8333333   0.8333333   0.1666667        11   16
  -0.3333333   0.0000000   1.0000000        16  -13
  -0.5000000   0.1666667   0.8333333        15    2
  -0.6666667   0.3333333   0.6666667         7    2
   0.1666667  -0.5000000  -0.5000000         8    6
   1.0000000   0.6666667   0.3333333        14  -18
   0.0000000   0.0000000  -0.6666667        10  -13
   0.8333333  -0.8333333   0.1666667        11  -13
   0.6666667  -0.6666667   0.0000000        12  -13
   0.5000000  -0.5000000  -0.1666667         8   15
   0.3333333  -0.3333333  -0.3333333         3    2
   0.1666667  -0.1666667  -0.5000000         6  -15
   0.1666667   0.1666667  -0.5000000         6   14
  -1.0000000  -0.6666667   0.3333333        14  -17
  -0.1666667   0.5000000  -0.8333333        15    5
  -0.3333333   0.6666667  -1.0000000        14    5
   0.5000000  -0.1666667  -0.1666667         6   -6
   0.3333333   0.0000000  -0.3333333         9   -2
   0.1666667   0.1666667  -0.1666667         2   -4
   0.0000000   0.3333333  -0.3333333         9    5
  -0.1666667   0.5000000  -0.5000000         8    5
  -0.3333333   0.6666667  -0.6666667         7    5
   0.5000000  -0.1666667   0.1666667         6    5
   0.3333333   0.0000000   0.0000000         5    5
   0.3333333   0.3333333   0.0000000         9  -14
   0.1666667   0.5000000  -0.1666667         6   -4
   1.0000000  -0.3333333   0.6666667        14  -10
   0.8333333  -0.1666667   0.5000000        15  -10
  -0.3333333   1.0000000  -0.6666667        14  -22
   0.5000000   0.1666667   0.1666667         6   -7
   0.5000000   0.5000000   0.1666667         8   16
  -0.6666667  -0.3333333  -1.0000000        14    3
  -0.8333333  -0.1666667   0.8333333        11   -4
   0.0000000   1.0000000  -0.3333333        16    9
   0.8333333   0.1666667   0.5000000        15    9
  -0.3333333  -0.6666667  -0.6666667         7   -7
   0.6666667   0.6666667   0.3333333         7   16
  -0.5000000  -0.1666667  -0.8333333        15    3
   0.3333333   1.0000000   0.0000000        16   -1
  -0.8333333   0.1666667   0.8333333        11    2
   1.0000000   0.3333333   0.6666667        14    9
  -0.1666667  -0.5000000  -0.5000000         8   -7
  -0.1666667  -0.1666667  -0.5000000         6   16
   0.6666667  -1.0000000   0.3333333        14  -13
  -0.5000000   0.1666667  -0.8333333        15   -1
  -0.6666667   0.3333333  -1.0000000        14   -1
   0.1666667  -0.5000000  -0.1666667         6    2
   0.0000000  -0.3333333  -0.3333333         9    6
   0.0000000   0.0000000  -0.3333333         5  -13
  -0.1666667   0.1666667  -0.5000000         6  -13
   0.6666667  -0.6666667   0.3333333         7  -13
   0.5000000  -0.5000000   0.1666667         8  -13
   0.3333333  -0.3333333   0.0000000         9  -13
   0.1666667  -0.1666667  -0.1666667         2    2

     Parallelization info
     --------------------
     sticks:   dense  smooth     PW     G-vecs:    dense   smooth      PW
     Min          42      42     13                  750      750     129
     Max          43      43     14                  754      754     132
     Sum         685     685    211                12039    12039    2085

     Using Slab Decomposition



     bravais-lattice index     =            2
     lattice parameter (alat)  =       7.9104  a.u.
     unit-cell volume          =     123.7472 (a.u.)^3
     number of atoms/cell      =            2
     number of atomic types    =            2
     number of electrons       =        16.00
     number of Kohn-Sham states=           16
     kinetic-energy cutoff     =      80.0000  Ry
     charge density cutoff     =     320.0000  Ry
     cutoff for Fock operator  =     320.0000  Ry
     scf convergence threshold =      1.0E-08
     mixing beta               =       0.7000
     number of iterations used =            8  plain     mixing
     Exchange-correlation= HSE
                           (   1   4  12   4   0   0   0)
     EXX-fraction              =        1.00

     celldm(1)=   7.910400  celldm(2)=   0.000000  celldm(3)=   0.000000
     celldm(4)=   0.000000  celldm(5)=   0.000000  celldm(6)=   0.000000

     crystal axes: (cart. coord. in units of alat)
               a(1) = (  -0.500000   0.000000   0.500000 )  
               a(2) = (   0.000000   0.500000   0.500000 )  
               a(3) = (  -0.500000   0.500000   0.000000 )  

     reciprocal axes: (cart. coord. in units 2 pi/alat)
               b(1) = ( -1.000000 -1.000000  1.000000 )  
               b(2) = (  1.000000  1.000000  1.000000 )  
               b(3) = ( -1.000000  1.000000 -1.000000 )  


     PseudoPot. # 1 for Mg read from file:
     ../../../../pseudos/Mg_ONCV_PBE-1.2.upf
     MD5 check sum: 330956729b1f868fdecd9f5113f6a961
     Pseudo is Norm-conserving, Zval = 10.0
     Generated using ONCVPSP code by D. R. Hamann
     Using radial grid of  602 points,  4 beta functions with: 
                l(1) =   0
                l(2) =   0
                l(3) =   1
                l(4) =   1

     PseudoPot. # 2 for O  read from file:
     ../../../../pseudos/O_ONCV_PBE-1.2.upf
     MD5 check sum: e36c48deb68f4e355fffe4602be2c42c
     Pseudo is Norm-conserving, Zval =  6.0
     Generated using ONCVPSP code by D. R. Hamann
     Using radial grid of  602 points,  4 beta functions with: 
                l(1) =   0
                l(2) =   0
                l(3) =   1
                l(4) =   1

     atomic species   valence    mass     pseudopotential
     Mg               10.00    24.30500     Mg( 1.00)
     O                 6.00    15.99900     O ( 1.00)

     48 Sym. Ops., with inversion, found


                                    s                        frac. trans.

      isym =  1     identity                                     

 cryst.   s( 1) = (     1          0          0      )
                  (     0          1          0      )
                  (     0          0          1      )

 cart.    s( 1) = (  1.0000000  0.0000000  0.0000000 )
                  (  0.0000000  1.0000000  0.0000000 )
                  (  0.0000000  0.0000000  1.0000000 )


      isym =  2     180 deg rotation - cart. axis [0,0,1]        

 cryst.   s( 2) = (     0          1         -1      )
                  (     1          0         -1      )
                  (     0          0         -1      )

 cart.    s( 2) = ( -1.0000000  0.0000000  0.0000000 )
                  (  0.0000000 -1.0000000  0.0000000 )
                  (  0.0000000  0.0000000  1.0000000 )


      isym =  3     180 deg rotation - cart. axis [0,1,0]        

 cryst.   s( 3) = (    -1          0          0      )
                  (    -1          0          1      )
                  (    -1          1          0      )

 cart.    s( 3) = ( -1.0000000  0.0000000  0.0000000 )
                  (  0.0000000  1.0000000  0.0000000 )
                  (  0.0000000  0.0000000 -1.0000000 )


      isym =  4     180 deg rotation - cart. axis [1,0,0]        

 cryst.   s( 4) = (     0         -1          1      )
                  (     0         -1          0      )
                  (     1         -1          0      )

 cart.    s( 4) = (  1.0000000  0.0000000  0.0000000 )
                  (  0.0000000 -1.0000000  0.0000000 )
                  (  0.0000000  0.0000000 -1.0000000 )


      isym =  5     180 deg rotation - cart. axis [1,1,0]        

 cryst.   s( 5) = (     0         -1          0      )
                  (    -1          0          0      )
                  (     0          0         -1      )

 cart.    s( 5) = (  0.0000000  1.0000000  0.0000000 )
                  (  1.0000000  0.0000000  0.0000000 )
                  (  0.0000000  0.0000000 -1.0000000 )


      isym =  6     180 deg rotation - cart. axis [1,-1,0]       

 cryst.   s( 6) = (    -1          0          1      )
                  (     0         -1          1      )
                  (     0          0          1      )

 cart.    s( 6) = (  0.0000000 -1.0000000  0.0000000 )
                  ( -1.0000000  0.0000000  0.0000000 )
                  (  0.0000000  0.0000000 -1.0000000 )


      isym =  7      90 deg rotation - cart. axis [0,0,-1]       

 cryst.   s( 7) = (     0          1          0      )
                  (     0          1         -1      )
                  (    -1          1          0      )

 cart.    s( 7) = (  0.0000000  1.0000000  0.0000000 )
                  ( -1.0000000  0.0000000  0.0000000 )
                  (  0.0000000  0.0000000  1.0000000 )


      isym =  8      90 deg rotation - cart. axis [0,0,1]        

 cryst.   s( 8) = (     1          0         -1      )
                  (     1          0          0      )
                  (     1         -1          0      )

 cart.    s( 8) = (  0.0000000 -1.0000000  0.0000000 )
                  (  1.0000000  0.0000000  0.0000000 )
                  (  0.0000000  0.0000000  1.0000000 )


      isym =  9     180 deg rotation - cart. axis [1,0,1]        

 cryst.   s( 9) = (    -1          0          0      )
                  (     0          0         -1      )
                  (     0         -1          0      )

 cart.    s( 9) = (  0.0000000  0.0000000  1.0000000 )
                  (  0.0000000 -1.0000000  0.0000000 )
                  (  1.0000000  0.0000000  0.0000000 )


      isym = 10     180 deg rotation - cart. axis [-1,0,1]       

 cryst.   s(10) = (     1          0          0      )
                  (     1         -1          0      )
                  (     1          0         -1      )

 cart.    s(10) = (  0.0000000  0.0000000 -1.0000000 )
                  (  0.0000000 -1.0000000  0.0000000 )
                  ( -1.0000000  0.0000000  0.0000000 )


      isym = 11      90 deg rotation - cart. axis [0,1,0]        

 cryst.   s(11) = (     0          1         -1      )
                  (    -1          1          0      )
                  (     0          1          0      )

 cart.    s(11) = (  0.0000000  0.0000000  1.0000000 )
                  (  0.0000000  1.0000000  0.0000000 )
                  ( -1.0000000  0.0000000  0.0000000 )


      isym = 12      90 deg rotation - cart. axis [0,-1,0]       

 cryst.   s(12) = (     0         -1          1      )
                  (     0          0          1      )
                  (    -1          0          1      )

 cart.    s(12) = (  0.0000000  0.0000000 -1.0000000 )
                  (  0.0000000  1.0000000  0.0000000 )
                  (  1.0000000  0.0000000  0.0000000 )


      isym = 13     180 deg rotation - cart. axis [0,1,1]        

 cryst.   s(13) = (    -1          1          0      )
                  (     0          1          0      )
                  (     0          1         -1      )

 cart.    s(13) = ( -1.0000000  0.0000000  0.0000000 )
                  (  0.0000000  0.0000000  1.0000000 )
                  (  0.0000000  1.0000000  0.0000000 )


      isym = 14     180 deg rotation - cart. axis [0,1,-1]       

 cryst.   s(14) = (     0          0         -1      )
                  (     0         -1          0      )
                  (    -1          0          0      )

 cart.    s(14) = ( -1.0000000  0.0000000  0.0000000 )
                  (  0.0000000  0.0000000 -1.0000000 )
                  (  0.0000000 -1.0000000  0.0000000 )


      isym = 15      90 deg rotation - cart. axis [-1,0,0]       

 cryst.   s(15) = (     0          0          1      )
                  (    -1          0          1      )
                  (     0         -1          1      )

 cart.    s(15) = (  1.0000000  0.0000000  0.0000000 )
                  (  0.0000000  0.0000000  1.0000000 )
                  (  0.0000000 -1.0000000  0.0000000 )


      isym = 16      90 deg rotation - cart. axis [1,0,0]        

 cryst.   s(16) = (     1         -1          0      )
                  (     1          0         -1      )
                  (     1          0          0      )

 cart.    s(16) = (  1.0000000  0.0000000  0.0000000 )
                  (  0.0000000  0.0000000 -1.0000000 )
                  (  0.0000000  1.0000000  0.0000000 )


      isym = 17     120 deg rotation - cart. axis [-1,-1,-1]     

 cryst.   s(17) = (    -1          0          1      )
                  (    -1          1          0      )
                  (    -1          0          0      )

 cart.    s(17) = (  0.0000000  1.0000000  0.0000000 )
                  (  0.0000000  0.0000000  1.0000000 )
                  (  1.0000000  0.0000000  0.0000000 )


      isym = 18     120 deg rotation - cart. axis [-1,1,1]       

 cryst.   s(18) = (     0          1          0      )
                  (     0          0          1      )
                  (     1          0          0      )

 cart.    s(18) = (  0.0000000 -1.0000000  0.0000000 )
                  (  0.0000000  0.0000000  1.0000000 )
                  ( -1.0000000  0.0000000  0.0000000 )


      isym = 19     120 deg rotation - cart. axis [1,1,-1]       

 cryst.   s(19) = (     1          0         -1      )
                  (     0          0         -1      )
                  (     0          1         -1      )

 cart.    s(19) = (  0.0000000  1.0000000  0.0000000 )
                  (  0.0000000  0.0000000 -1.0000000 )
                  ( -1.0000000  0.0000000  0.0000000 )


      isym = 20     120 deg rotation - cart. axis [1,-1,1]       

 cryst.   s(20) = (     0         -1          0      )
                  (     1         -1          0      )
                  (     0         -1          1      )

 cart.    s(20) = (  0.0000000 -1.0000000  0.0000000 )
                  (  0.0000000  0.0000000 -1.0000000 )
                  (  1.0000000  0.0000000  0.0000000 )


      isym = 21     120 deg rotation - cart. axis [1,1,1]        

 cryst.   s(21) = (     0          0         -1      )
                  (     0          1         -1      )
                  (     1          0         -1      )

 cart.    s(21) = (  0.0000000  0.0000000  1.0000000 )
                  (  1.0000000  0.0000000  0.0000000 )
                  (  0.0000000  1.0000000  0.0000000 )


      isym = 22     120 deg rotation - cart. axis [-1,1,-1]      

 cryst.   s(22) = (    -1          1          0      )
                  (    -1          0          0      )
                  (    -1          0          1      )

 cart.    s(22) = (  0.0000000  0.0000000  1.0000000 )
                  ( -1.0000000  0.0000000  0.0000000 )
                  (  0.0000000 -1.0000000  0.0000000 )


      isym = 23     120 deg rotation - cart. axis [1,-1,-1]      

 cryst.   s(23) = (     0          0          1      )
                  (     1          0          0      )
                  (     0          1          0      )

 cart.    s(23) = (  0.0000000  0.0000000 -1.0000000 )
                  ( -1.0000000  0.0000000  0.0000000 )
                  (  0.0000000  1.0000000  0.0000000 )


      isym = 24     120 deg rotation - cart. axis [-1,-1,1]      

 cryst.   s(24) = (     1         -1          0      )
                  (     0         -1          1      )
                  (     0         -1          0      )

 cart.    s(24) = (  0.0000000  0.0000000 -1.0000000 )
                  (  1.0000000  0.0000000  0.0000000 )
                  (  0.0000000 -1.0000000  0.0000000 )


      isym = 25     inversion                                    

 cryst.   s(25) = (    -1          0          0      )
                  (     0         -1          0      )
                  (     0          0         -1      )

 cart.    s(25) = ( -1.0000000  0.0000000  0.0000000 )
                  (  0.0000000 -1.0000000  0.0000000 )
                  (  0.0000000  0.0000000 -1.0000000 )


      isym = 26     inv. 180 deg rotation - cart. axis [0,0,1]   

 cryst.   s(26) = (     0         -1          1      )
                  (    -1          0          1      )
                  (     0          0          1      )

 cart.    s(26) = (  1.0000000  0.0000000  0.0000000 )
                  (  0.0000000  1.0000000  0.0000000 )
                  (  0.0000000  0.0000000 -1.0000000 )


      isym = 27     inv. 180 deg rotation - cart. axis [0,1,0]   

 cryst.   s(27) = (     1          0          0      )
                  (     1          0         -1      )
                  (     1         -1          0      )

 cart.    s(27) = (  1.0000000  0.0000000  0.0000000 )
                  (  0.0000000 -1.0000000  0.0000000 )
                  (  0.0000000  0.0000000  1.0000000 )


      isym = 28     inv. 180 deg rotation - cart. axis [1,0,0]   

 cryst.   s(28) = (     0          1         -1      )
                  (     0          1          0      )
                  (    -1          1          0      )

 cart.    s(28) = ( -1.0000000  0.0000000  0.0000000 )
                  (  0.0000000  1.0000000  0.0000000 )
                  (  0.0000000  0.0000000  1.0000000 )


      isym = 29     inv. 180 deg rotation - cart. axis [1,1,0]   

 cryst.   s(29) = (     0          1          0      )
                  (     1          0          0      )
                  (     0          0          1      )

 cart.    s(29) = (  0.0000000 -1.0000000  0.0000000 )
                  ( -1.0000000  0.0000000  0.0000000 )
                  (  0.0000000  0.0000000  1.0000000 )


      isym = 30     inv. 180 deg rotation - cart. axis [1,-1,0]  

 cryst.   s(30) = (     1          0         -1      )
                  (     0          1         -1      )
                  (     0          0         -1      )

 cart.    s(30) = (  0.0000000  1.0000000  0.0000000 )
                  (  1.0000000  0.0000000  0.0000000 )
                  (  0.0000000  0.0000000  1.0000000 )


      isym = 31     inv.  90 deg rotation - cart. axis [0,0,-1]  

 cryst.   s(31) = (     0         -1          0      )
                  (     0         -1          1      )
                  (     1         -1          0      )

 cart.    s(31) = (  0.0000000 -1.0000000  0.0000000 )
                  (  1.0000000  0.0000000  0.0000000 )
                  (  0.0000000  0.0000000 -1.0000000 )


      isym = 32     inv.  90 deg rotation - cart. axis [0,0,1]   

 cryst.   s(32) = (    -1          0          1      )
                  (    -1          0          0      )
                  (    -1          1          0      )

 cart.    s(32) = (  0.0000000  1.0000000  0.0000000 )
                  ( -1.0000000  0.0000000  0.0000000 )
                  (  0.0000000  0.0000000 -1.0000000 )


      isym = 33     inv. 180 deg rotation - cart. axis [1,0,1]   

 cryst.   s(33) = (     1          0          0      )
                  (     0          0          1      )
                  (     0          1          0      )

 cart.    s(33) = (  0.0000000  0.0000000 -1.0000000 )
                  (  0.0000000  1.0000000  0.0000000 )
                  ( -1.0000000  0.0000000  0.0000000 )


      isym = 34     inv. 180 deg rotation - cart. axis [-1,0,1]  

 cryst.   s(34) = (    -1          0          0      )
                  (    -1          1          0      )
                  (    -1          0          1      )

 cart.    s(34) = (  0.0000000  0.0000000  1.0000000 )
                  (  0.0000000  1.0000000  0.0000000 )
                  (  1.0000000  0.0000000  0.0000000 )


      isym = 35     inv.  90 deg rotation - cart. axis [0,1,0]   

 cryst.   s(35) = (     0         -1          1      )
                  (     1         -1          0      )
                  (     0         -1          0      )

 cart.    s(35) = (  0.0000000  0.0000000 -1.0000000 )
                  (  0.0000000 -1.0000000  0.0000000 )
                  (  1.0000000  0.0000000  0.0000000 )


      isym = 36     inv.  90 deg rotation - cart. axis [0,-1,0]  

 cryst.   s(36) = (     0          1         -1      )
                  (     0          0         -1      )
                  (     1          0         -1      )

 cart.    s(36) = (  0.0000000  0.0000000  1.0000000 )
                  (  0.0000000 -1.0000000  0.0000000 )
                  ( -1.0000000  0.0000000  0.0000000 )


      isym = 37     inv. 180 deg rotation - cart. axis [0,1,1]   

 cryst.   s(37) = (     1         -1          0      )
                  (     0         -1          0      )
                  (     0         -1          1      )

 cart.    s(37) = (  1.0000000  0.0000000  0.0000000 )
                  (  0.0000000  0.0000000 -1.0000000 )
                  (  0.0000000 -1.0000000  0.0000000 )


      isym = 38     inv. 180 deg rotation - cart. axis [0,1,-1]  

 cryst.   s(38) = (     0          0          1      )
                  (     0          1          0      )
                  (     1          0          0      )

 cart.    s(38) = (  1.0000000  0.0000000  0.0000000 )
                  (  0.0000000  0.0000000  1.0000000 )
                  (  0.0000000  1.0000000  0.0000000 )


      isym = 39     inv.  90 deg rotation - cart. axis [-1,0,0]  

 cryst.   s(39) = (     0          0         -1      )
                  (     1          0         -1      )
                  (     0          1         -1      )

 cart.    s(39) = ( -1.0000000  0.0000000  0.0000000 )
                  (  0.0000000  0.0000000 -1.0000000 )
                  (  0.0000000  1.0000000  0.0000000 )


      isym = 40     inv.  90 deg rotation - cart. axis [1,0,0]   

 cryst.   s(40) = (    -1          1          0      )
                  (    -1          0          1      )
                  (    -1          0          0      )

 cart.    s(40) = ( -1.0000000  0.0000000  0.0000000 )
                  (  0.0000000  0.0000000  1.0000000 )
                  (  0.0000000 -1.0000000  0.0000000 )


      isym = 41     inv. 120 deg rotation - cart. axis [-1,-1,-1]

 cryst.   s(41) = (     1          0         -1      )
                  (     1         -1          0      )
                  (     1          0          0      )

 cart.    s(41) = (  0.0000000 -1.0000000  0.0000000 )
                  (  0.0000000  0.0000000 -1.0000000 )
                  ( -1.0000000  0.0000000  0.0000000 )


      isym = 42     inv. 120 deg rotation - cart. axis [-1,1,1]  

 cryst.   s(42) = (     0         -1          0      )
                  (     0          0         -1      )
                  (    -1          0          0      )

 cart.    s(42) = (  0.0000000  1.0000000  0.0000000 )
                  (  0.0000000  0.0000000 -1.0000000 )
                  (  1.0000000  0.0000000  0.0000000 )


      isym = 43     inv. 120 deg rotation - cart. axis [1,1,-1]  

 cryst.   s(43) = (    -1          0          1      )
                  (     0          0          1      )
                  (     0         -1          1      )

 cart.    s(43) = (  0.0000000 -1.0000000  0.0000000 )
                  (  0.0000000  0.0000000  1.0000000 )
                  (  1.0000000  0.0000000  0.0000000 )


      isym = 44     inv. 120 deg rotation - cart. axis [1,-1,1]  

 cryst.   s(44) = (     0          1          0      )
                  (    -1          1          0      )
                  (     0          1         -1      )

 cart.    s(44) = (  0.0000000  1.0000000  0.0000000 )
                  (  0.0000000  0.0000000  1.0000000 )
                  ( -1.0000000  0.0000000  0.0000000 )


      isym = 45     inv. 120 deg rotation - cart. axis [1,1,1]   

 cryst.   s(45) = (     0          0          1      )
                  (     0         -1          1      )
                  (    -1          0          1      )

 cart.    s(45) = (  0.0000000  0.0000000 -1.0000000 )
                  ( -1.0000000  0.0000000  0.0000000 )
                  (  0.0000000 -1.0000000  0.0000000 )


      isym = 46     inv. 120 deg rotation - cart. axis [-1,1,-1] 

 cryst.   s(46) = (     1         -1          0      )
                  (     1          0          0      )
                  (     1          0         -1      )

 cart.    s(46) = (  0.0000000  0.0000000 -1.0000000 )
                  (  1.0000000  0.0000000  0.0000000 )
                  (  0.0000000  1.0000000  0.0000000 )


      isym = 47     inv. 120 deg rotation - cart. axis [1,-1,-1] 

 cryst.   s(47) = (     0          0         -1      )
                  (    -1          0          0      )
                  (     0         -1          0      )

 cart.    s(47) = (  0.0000000  0.0000000  1.0000000 )
                  (  1.0000000  0.0000000  0.0000000 )
                  (  0.0000000 -1.0000000  0.0000000 )


      isym = 48     inv. 120 deg rotation - cart. axis [-1,-1,1] 

 cryst.   s(48) = (    -1          1          0      )
                  (     0          1         -1      )
                  (     0          1          0      )

 cart.    s(48) = (  0.0000000  0.0000000  1.0000000 )
                  ( -1.0000000  0.0000000  0.0000000 )
                  (  0.0000000  1.0000000  0.0000000 )


     point group O_h (m-3m) 
     there are 10 classes
     the character table:

       E     8C3   3C2   6C4   6C2'  i     8S6   3s_h  6S4   6s_d 
A_1g   1.00  1.00  1.00  1.00  1.00  1.00  1.00  1.00  1.00  1.00
A_2g   1.00  1.00  1.00 -1.00 -1.00  1.00  1.00  1.00 -1.00 -1.00
E_g    2.00 -1.00  2.00  0.00  0.00  2.00 -1.00  2.00  0.00  0.00
T_1g   3.00  0.00 -1.00  1.00 -1.00  3.00  0.00 -1.00  1.00 -1.00
T_2g   3.00  0.00 -1.00 -1.00  1.00  3.00  0.00 -1.00 -1.00  1.00
A_1u   1.00  1.00  1.00  1.00  1.00 -1.00 -1.00 -1.00 -1.00 -1.00
A_2u   1.00  1.00  1.00 -1.00 -1.00 -1.00 -1.00 -1.00  1.00  1.00
E_u    2.00 -1.00  2.00  0.00  0.00 -2.00  1.00 -2.00  0.00  0.00
T_1u   3.00  0.00 -1.00  1.00 -1.00 -3.00  0.00  1.00 -1.00  1.00
T_2u   3.00  0.00 -1.00 -1.00  1.00 -3.00  0.00  1.00  1.00 -1.00

     the symmetry operations in each class and the name of the first element:

     E        1
          identity                                               
     8C3     17   19   20   18   24   21   22   23
          120 deg rotation - cart. axis [-1,-1,-1]               
     3C2      2    4    3
          180 deg rotation - cart. axis [0,0,1]                  
     6C4      7    8   15   16   12   11
           90 deg rotation - cart. axis [0,0,-1]                 
     6C2'     5    6   14   13   10    9
          180 deg rotation - cart. axis [1,1,0]                  
     i       25
          inversion                                              
     8S6     41   43   44   42   48   45   46   47
          inv. 120 deg rotation - cart. axis [-1,-1,-1]          
     3s_h    26   28   27
          inv. 180 deg rotation - cart. axis [0,0,1]             
     6S4     31   32   39   40   36   35
          inv.  90 deg rotation - cart. axis [0,0,-1]            
     6s_d    29   30   38   37   34   33
          inv. 180 deg rotation - cart. axis [1,1,0]             

   Cartesian axes

     site n.     atom                  positions (alat units)
         1        Mg     tau(   1) = (   0.0000000   0.0000000   0.0000000  )
         2        O      tau(   2) = (  -0.5000000   0.5000000   0.5000000  )

   Crystallographic axes

     site n.     atom                  positions (cryst. coord.)
         1        Mg     tau(   1) = (  0.0000000  0.0000000  0.0000000  )
         2        O      tau(   2) = (  0.5000000  0.5000000  0.5000000  )

     number of k points=    16
                       cart. coord. in units 2pi/alat
        k(    1) = (   0.0000000   0.0000000   0.0000000), wk =   0.0092593
        k(    2) = (  -0.1666667   0.1666667  -0.1666667), wk =   0.0740741
        k(    3) = (  -0.3333333   0.3333333  -0.3333333), wk =   0.0740741
        k(    4) = (   0.5000000  -0.5000000   0.5000000), wk =   0.0370370
        k(    5) = (   0.0000000   0.3333333   0.0000000), wk =   0.0555556
        k(    6) = (  -0.1666667   0.5000000  -0.1666667), wk =   0.2222222
        k(    7) = (   0.6666667  -0.3333333   0.6666667), wk =   0.2222222
        k(    8) = (   0.5000000  -0.1666667   0.5000000), wk =   0.2222222
        k(    9) = (   0.3333333   0.0000000   0.3333333), wk =   0.1111111
        k(   10) = (   0.0000000   0.6666667   0.0000000), wk =   0.0555556
        k(   11) = (   0.8333333  -0.1666667   0.8333333), wk =   0.2222222
        k(   12) = (   0.6666667  -0.0000000   0.6666667), wk =   0.1111111
        k(   13) = (   0.0000000  -1.0000000   0.0000000), wk =   0.0277778
        k(   14) = (   0.6666667  -0.3333333   1.0000000), wk =   0.2222222
        k(   15) = (   0.5000000  -0.1666667   0.8333333), wk =   0.2222222
        k(   16) = (  -0.3333333  -1.0000000   0.0000000), wk =   0.1111111

                       cryst. coord.
        k(    1) = (   0.0000000   0.0000000   0.0000000), wk =   0.0092593
        k(    2) = (   0.0000000   0.0000000   0.1666667), wk =   0.0740741
        k(    3) = (   0.0000000   0.0000000   0.3333333), wk =   0.0740741
        k(    4) = (   0.0000000   0.0000000  -0.5000000), wk =   0.0370370
        k(    5) = (   0.0000000   0.1666667   0.1666667), wk =   0.0555556
        k(    6) = (   0.0000000   0.1666667   0.3333333), wk =   0.2222222
        k(    7) = (   0.0000000   0.1666667  -0.5000000), wk =   0.2222222
        k(    8) = (   0.0000000   0.1666667  -0.3333333), wk =   0.2222222
        k(    9) = (   0.0000000   0.1666667  -0.1666667), wk =   0.1111111
        k(   10) = (   0.0000000   0.3333333   0.3333333), wk =   0.0555556
        k(   11) = (   0.0000000   0.3333333  -0.5000000), wk =   0.2222222
        k(   12) = (   0.0000000   0.3333333  -0.3333333), wk =   0.1111111
        k(   13) = (   0.0000000  -0.5000000  -0.5000000), wk =   0.0277778
        k(   14) = (   0.1666667   0.3333333  -0.5000000), wk =   0.2222222
        k(   15) = (   0.1666667   0.3333333  -0.3333333), wk =   0.2222222
        k(   16) = (   0.1666667  -0.5000000  -0.3333333), wk =   0.1111111

     Dense  grid:    12039 G-vectors     FFT dimensions: (  32,  32,  32)

     Dynamical RAM for                 wfc:       0.02 MB

     Dynamical RAM for     wfc (w. buffer):       0.39 MB

     Dynamical RAM for                 EXX:      79.98 MB

     Dynamical RAM for           str. fact:       0.02 MB

     Dynamical RAM for           local pot:       0.00 MB

     Dynamical RAM for          nlocal pot:       0.02 MB

     Dynamical RAM for                qrad:       0.91 MB

     Dynamical RAM for          rho,v,vnew:       0.08 MB

     Dynamical RAM for               rhoin:       0.03 MB

     Dynamical RAM for            rho*nmix:       0.18 MB

     Dynamical RAM for           G-vectors:       0.05 MB

     Dynamical RAM for          h,s,v(r/c):       0.05 MB

     Dynamical RAM for          <psi|beta>:       0.00 MB

     Dynamical RAM for                 psi:       0.05 MB

     Dynamical RAM for                hpsi:       0.05 MB

     Dynamical RAM for      wfcinit/wfcrot:       0.05 MB

     Estimated static dynamical RAM per process >      81.59 MB

     Estimated max dynamical RAM per process >      81.91 MB

     Estimated total dynamical RAM >       1.28 GB
     EXX: ACE will be initialized later

     Initial potential from superposition of free atoms

     starting charge      15.9336, renormalised to      16.0000
     Starting wfcs are random

     total cpu time spent up to now is        0.2 secs

     Self-consistent Calculation

     iteration #  1     ecut=    80.00 Ry     beta= 0.70
     Davidson diagonalization with overlap

---- Real-time Memory Report at c_bands before calling an iterative solver
            67 MiB given to the printing process from OS
             0 MiB allocation reported by mallinfo(arena+hblkhd)
         14093 MiB available memory on the node where the printing process lives
------------------
     ethr =  1.00E-02,  avg # of iterations =  7.9

     total cpu time spent up to now is        0.5 secs

     total energy              =    -140.69840653 Ry
     estimated scf accuracy    <       0.36375083 Ry

     iteration #  2     ecut=    80.00 Ry     beta= 0.70
     Davidson diagonalization with overlap

---- Real-time Memory Report at c_bands before calling an iterative solver
            68 MiB given to the printing process from OS
             0 MiB allocation reported by mallinfo(arena+hblkhd)
         14088 MiB available memory on the node where the printing process lives
------------------
     ethr =  2.27E-03,  avg # of iterations =  2.0

     total cpu time spent up to now is        0.6 secs

     total energy              =    -140.79377195 Ry
     estimated scf accuracy    <       0.29279496 Ry

     iteration #  3     ecut=    80.00 Ry     beta= 0.70
     Davidson diagonalization with overlap

---- Real-time Memory Report at c_bands before calling an iterative solver
            68 MiB given to the printing process from OS
             0 MiB allocation reported by mallinfo(arena+hblkhd)
         14070 MiB available memory on the node where the printing process lives
------------------
     ethr =  1.83E-03,  avg # of iterations =  1.8

     total cpu time spent up to now is        0.8 secs

     total energy              =    -140.85154400 Ry
     estimated scf accuracy    <       0.00152025 Ry

     iteration #  4     ecut=    80.00 Ry     beta= 0.70
     Davidson diagonalization with overlap

---- Real-time Memory Report at c_bands before calling an iterative solver
            68 MiB given to the printing process from OS
             0 MiB allocation reported by mallinfo(arena+hblkhd)
         13956 MiB available memory on the node where the printing process lives
------------------
     ethr =  9.50E-06,  avg # of iterations =  4.4

     total cpu time spent up to now is        0.9 secs

     total energy              =    -140.85188477 Ry
     estimated scf accuracy    <       0.00001389 Ry

     iteration #  5     ecut=    80.00 Ry     beta= 0.70
     Davidson diagonalization with overlap

---- Real-time Memory Report at c_bands before calling an iterative solver
            68 MiB given to the printing process from OS
             0 MiB allocation reported by mallinfo(arena+hblkhd)
         14083 MiB available memory on the node where the printing process lives
------------------
     ethr =  8.68E-08,  avg # of iterations =  2.2

     total cpu time spent up to now is        1.1 secs

     total energy              =    -140.85188765 Ry
     estimated scf accuracy    <       0.00000137 Ry

     iteration #  6     ecut=    80.00 Ry     beta= 0.70
     Davidson diagonalization with overlap

---- Real-time Memory Report at c_bands before calling an iterative solver
            69 MiB given to the printing process from OS
             0 MiB allocation reported by mallinfo(arena+hblkhd)
         14083 MiB available memory on the node where the printing process lives
------------------
     ethr =  8.55E-09,  avg # of iterations =  2.0

     total cpu time spent up to now is        1.2 secs

     total energy              =    -140.85188790 Ry
     estimated scf accuracy    <       0.00000013 Ry

     iteration #  7     ecut=    80.00 Ry     beta= 0.70
     Davidson diagonalization with overlap

---- Real-time Memory Report at c_bands before calling an iterative solver
            69 MiB given to the printing process from OS
             0 MiB allocation reported by mallinfo(arena+hblkhd)
         14083 MiB available memory on the node where the printing process lives
------------------
     ethr =  8.22E-10,  avg # of iterations =  1.2

     total cpu time spent up to now is        1.3 secs

     End of self-consistent calculation

          k = 0.0000 0.0000 0.0000 (  1459 PWs)   bands (ev):

   -63.2993 -30.0692 -30.0692 -30.0692  -8.2978   9.0035   9.0035   9.0035
    13.9554  25.0128  25.0128  25.0128  28.8647  30.8680  30.8680  33.7231

     occupation numbers 
     1.0000   1.0000   1.0000   1.0000   1.0000   1.0000   1.0000   1.0000
     0.0000   0.0000   0.0000   0.0000   0.0000   0.0000   0.0000   0.0000

          k =-0.1667 0.1667-0.1667 (  1489 PWs)   bands (ev):

   -63.2972 -30.0924 -30.0715 -30.0715  -7.9974   7.4922   8.8264   8.8264
    15.3658  22.6328  25.5973  25.5973  29.5624  29.5624  31.6020  34.5966

     occupation numbers 
     1.0000   1.0000   1.0000   1.0000   1.0000   1.0000   1.0000   1.0000
     0.0000   0.0000   0.0000   0.0000   0.0000   0.0000   0.0000   0.0000

          k =-0.3333 0.3333-0.3333 (  1501 PWs)   bands (ev):

   -63.2925 -30.1382 -30.0762 -30.0762  -7.3222   5.2988   8.4950   8.4950
    16.8523  21.5079  25.8364  25.8364  30.2315  30.2315  30.8199  38.6176

     occupation numbers 
     1.0000   1.0000   1.0000   1.0000   1.0000   1.0000   1.0000   1.0000
     0.0000   0.0000   0.0000   0.0000   0.0000   0.0000   0.0000   0.0000

          k = 0.5000-0.5000 0.5000 (  1502 PWs)   bands (ev):

   -63.2902 -30.1610 -30.0785 -30.0785  -6.9337   4.3303   8.3393   8.3393
    17.0524  21.8309  25.5764  25.5764  30.2731  31.8470  31.8470  37.9670

     occupation numbers 
     1.0000   1.0000   1.0000   1.0000   1.0000   1.0000   1.0000   1.0000
     0.0000   0.0000   0.0000   0.0000   0.0000   0.0000   0.0000   0.0000

          k = 0.0000 0.3333 0.0000 (  1491 PWs)   bands (ev):

   -63.2964 -30.0906 -30.0768 -30.0768  -7.9075   7.4145   8.6118   8.6118
    15.8500  21.8555  25.9027  25.9027  26.9872  31.7303  33.9175  35.0805

     occupation numbers 
     1.0000   1.0000   1.0000   1.0000   1.0000   1.0000   1.0000   1.0000
     0.0000   0.0000   0.0000   0.0000   0.0000   0.0000   0.0000   0.0000

          k =-0.1667 0.5000-0.1667 (  1484 PWs)   bands (ev):

   -63.2924 -30.1236 -30.0829 -30.0825  -7.3766   5.8957   8.1279   8.2789
    17.5098  20.6772  24.5817  26.4582  27.6328  32.1422  34.2728  38.0717

     occupation numbers 
     1.0000   1.0000   1.0000   1.0000   1.0000   1.0000   1.0000   1.0000
     0.0000   0.0000   0.0000   0.0000   0.0000   0.0000   0.0000   0.0000

          k = 0.6667-0.3333 0.6667 (  1493 PWs)   bands (ev):

   -63.2893 -30.1501 -30.0911 -30.0838  -6.8847   4.7887   7.5472   8.1514
    18.1564  21.4031  23.5127  26.2670  29.2801  32.7308  33.7420  38.5572

     occupation numbers 
     1.0000   1.0000   1.0000   1.0000   1.0000   1.0000   1.0000   1.0000
     0.0000   0.0000   0.0000   0.0000   0.0000   0.0000   0.0000   0.0000

          k = 0.5000-0.1667 0.5000 (  1499 PWs)   bands (ev):

   -63.2902 -30.1433 -30.0946 -30.0785  -7.0005   5.0692   7.4350   8.3399
    18.1542  21.2907  23.7488  26.3783  29.9881  30.6102  33.6644  39.0538

     occupation numbers 
     1.0000   1.0000   1.0000   1.0000   1.0000   1.0000   1.0000   1.0000
     0.0000   0.0000   0.0000   0.0000   0.0000   0.0000   0.0000   0.0000

          k = 0.3333 0.0000 0.3333 (  1492 PWs)   bands (ev):

   -63.2940 -30.1140 -30.0854 -30.0724  -7.5781   6.3625   8.0557   8.6803
    16.9002  21.3592  25.0051  26.8938  27.5026  30.4765  33.6672  36.1993

     occupation numbers 
     1.0000   1.0000   1.0000   1.0000   1.0000   1.0000   1.0000   1.0000
     0.0000   0.0000   0.0000   0.0000   0.0000   0.0000   0.0000   0.0000

          k = 0.0000 0.6667 0.0000 (  1479 PWs)   bands (ev):

   -63.2900 -30.1294 -30.0920 -30.0920  -7.1100   5.5382   7.9378   7.9378
    18.5304  19.1390  23.1326  27.5117  27.5117  34.1479  36.4868  38.8246

     occupation numbers 
     1.0000   1.0000   1.0000   1.0000   1.0000   1.0000   1.0000   1.0000
     0.0000   0.0000   0.0000   0.0000   0.0000   0.0000   0.0000   0.0000

          k = 0.8333-0.1667 0.8333 (  1501 PWs)   bands (ev):

   -63.2878 -30.1397 -30.1051 -30.0944  -6.7714   5.1884   7.0867   7.8039
    18.9228  20.0318  22.1696  27.6151  27.7931  35.3041  36.2076  38.4176

     occupation numbers 
     1.0000   1.0000   1.0000   1.0000   1.0000   1.0000   1.0000   1.0000
     0.0000   0.0000   0.0000   0.0000   0.0000   0.0000   0.0000   0.0000

          k = 0.6667-0.0000 0.6667 (  1516 PWs)   bands (ev):

   -63.2880 -30.1289 -30.1242 -30.0877  -6.7168   5.7459   5.9088   7.9915
    19.4626  21.3772  21.7986  27.0819  28.1529  32.4996  36.9957  37.6158

     occupation numbers 
     1.0000   1.0000   1.0000   1.0000   1.0000   1.0000   1.0000   1.0000
     0.0000   0.0000   0.0000   0.0000   0.0000   0.0000   0.0000   0.0000

          k = 0.0000-1.0000 0.0000 (  1524 PWs)   bands (ev):

   -63.2873 -30.1468 -30.0997 -30.0997  -6.7066   4.8838   7.6424   7.6424
    18.2137  19.2502  22.2960  28.2902  28.2902  34.8488  36.3618  40.2602

     occupation numbers 
     1.0000   1.0000   1.0000   1.0000   1.0000   1.0000   1.0000   1.0000
     0.0000   0.0000   0.0000   0.0000   0.0000   0.0000   0.0000   0.0000

          k = 0.6667-0.3333 1.0000 (  1492 PWs)   bands (ev):

   -63.2893 -30.1342 -30.1027 -30.0866  -6.9471   5.4317   7.1338   7.9744
    19.2192  20.2059  22.8284  26.4916  28.7484  32.2612  37.3061  37.7720

     occupation numbers 
     1.0000   1.0000   1.0000   1.0000   1.0000   1.0000   1.0000   1.0000
     0.0000   0.0000   0.0000   0.0000   0.0000   0.0000   0.0000   0.0000

          k = 0.5000-0.1667 0.8333 (  1498 PWs)   bands (ev):

   -63.2878 -30.1369 -30.1120 -30.0918  -6.7167   5.3790   6.5114   7.7224
    19.7325  21.1227  22.0146  25.7990  30.1091  31.3434  37.2431  37.8621

     occupation numbers 
     1.0000   1.0000   1.0000   1.0000   1.0000   1.0000   1.0000   1.0000
     0.0000   0.0000   0.0000   0.0000   0.0000   0.0000   0.0000   0.0000

          k =-0.3333-1.0000 0.0000 (  1510 PWs)   bands (ev):

   -63.2871 -30.1350 -30.1114 -30.1014  -6.6564   5.4120   6.7398   7.3175
    19.6753  20.7022  21.6554  25.8159  29.5050  34.0010  35.7242  37.8609

     occupation numbers 
     1.0000   1.0000   1.0000   1.0000   1.0000   1.0000   1.0000   1.0000
     0.0000   0.0000   0.0000   0.0000   0.0000   0.0000   0.0000   0.0000

     highest occupied, lowest unoccupied level (ev):     9.0035   13.9554

!    total energy              =    -140.85188791 Ry
     estimated scf accuracy    <          2.1E-09 Ry

     convergence has been achieved in   7 iterations

     Using ACE for calculation of exact exchange

     EXX grid:    12039 G-vectors     FFT dimensions: (  32,  32,  32)
     ACE projected onto    16 (nbndproj) and applied to    16 (nbnd) bands

     EXX: now go back to refine exchange calculation

     total cpu time spent up to now is      168.9 secs

     Self-consistent Calculation

     iteration #  1     ecut=    80.00 Ry     beta= 0.70
     Davidson diagonalization with overlap

---- Real-time Memory Report at c_bands before calling an iterative solver
           204 MiB given to the printing process from OS
             0 MiB allocation reported by mallinfo(arena+hblkhd)
         11923 MiB available memory on the node where the printing process lives
------------------
     ethr =  8.22E-10,  avg # of iterations =  6.1

     total cpu time spent up to now is      169.2 secs

     total energy              =    -140.85180203 Ry
     estimated scf accuracy    <       0.00074371 Ry

     iteration #  2     ecut=    80.00 Ry     beta= 0.70
     Davidson diagonalization with overlap

---- Real-time Memory Report at c_bands before calling an iterative solver
           204 MiB given to the printing process from OS
             0 MiB allocation reported by mallinfo(arena+hblkhd)
         11923 MiB available memory on the node where the printing process lives
------------------
     ethr =  4.65E-06,  avg # of iterations =  2.0

     total cpu time spent up to now is      169.3 secs

     total energy              =    -140.85181433 Ry
     estimated scf accuracy    <       0.00006100 Ry

     iteration #  3     ecut=    80.00 Ry     beta= 0.70
     Davidson diagonalization with overlap

---- Real-time Memory Report at c_bands before calling an iterative solver
           204 MiB given to the printing process from OS
             0 MiB allocation reported by mallinfo(arena+hblkhd)
         11923 MiB available memory on the node where the printing process lives
------------------
     ethr =  3.81E-07,  avg # of iterations =  2.0

     total cpu time spent up to now is      169.4 secs

     total energy              =    -140.85182296 Ry
     estimated scf accuracy    <       0.00002507 Ry

     iteration #  4     ecut=    80.00 Ry     beta= 0.70
     Davidson diagonalization with overlap

---- Real-time Memory Report at c_bands before calling an iterative solver
           204 MiB given to the printing process from OS
             0 MiB allocation reported by mallinfo(arena+hblkhd)
         11924 MiB available memory on the node where the printing process lives
------------------
     ethr =  1.57E-07,  avg # of iterations =  1.9

     total cpu time spent up to now is      169.6 secs

     total energy              =    -140.85182857 Ry
     estimated scf accuracy    <       0.00000001 Ry

     iteration #  5     ecut=    80.00 Ry     beta= 0.70
     Davidson diagonalization with overlap

---- Real-time Memory Report at c_bands before calling an iterative solver
           204 MiB given to the printing process from OS
             0 MiB allocation reported by mallinfo(arena+hblkhd)
         11925 MiB available memory on the node where the printing process lives
------------------
     ethr =  7.14E-11,  avg # of iterations =  2.9

     total cpu time spent up to now is      169.7 secs

     End of self-consistent calculation

          k = 0.0000 0.0000 0.0000 (  1459 PWs)   bands (ev):

   -73.6455 -34.8640 -34.8640 -34.8640 -13.1023   6.8642   6.8642   6.8642
    14.7884  26.4038  26.4038  26.4038  30.2326  32.5263  32.5263  36.1116

     occupation numbers 
     1.0000   1.0000   1.0000   1.0000   1.0000   1.0000   1.0000   1.0000
     0.0000   0.0000   0.0000   0.0000   0.0000   0.0000   0.0000   0.0000

          k =-0.1667 0.1667-0.1667 (  1489 PWs)   bands (ev):

   -73.6429 -34.8902 -34.8657 -34.8657 -12.7894   5.1881   6.6525   6.6525
    16.3677  24.0054  27.0716  27.0716  31.3436  31.3436  33.4253  36.4708

     occupation numbers 
     1.0000   1.0000   1.0000   1.0000   1.0000   1.0000   1.0000   1.0000
     0.0000   0.0000   0.0000   0.0000   0.0000   0.0000   0.0000   0.0000

          k =-0.3333 0.3333-0.3333 (  1501 PWs)   bands (ev):

   -73.6395 -34.9422 -34.8704 -34.8704 -12.0835   2.7288   6.2675   6.2675
    18.0064  23.1639  27.4871  27.4871  32.0527  32.0527  32.6495  40.5548

     occupation numbers 
     1.0000   1.0000   1.0000   1.0000   1.0000   1.0000   1.0000   1.0000
     0.0000   0.0000   0.0000   0.0000   0.0000   0.0000   0.0000   0.0000

          k = 0.5000-0.5000 0.5000 (  1502 PWs)   bands (ev):

   -73.6367 -34.9678 -34.8721 -34.8721 -11.6885   1.6536   6.0845   6.0845
    18.1821  23.7562  27.2707  27.2707  31.9776  33.8257  33.8257  39.9594

     occupation numbers 
     1.0000   1.0000   1.0000   1.0000   1.0000   1.0000   1.0000   1.0000
     0.0000   0.0000   0.0000   0.0000   0.0000   0.0000   0.0000   0.0000

          k = 0.0000 0.3333 0.0000 (  1491 PWs)   bands (ev):

   -73.6419 -34.8871 -34.8719 -34.8719 -12.6970   5.0984   6.4121   6.4121
    16.9159  23.0778  27.5186  27.5203  28.7556  33.4253  35.4553  37.3562

     occupation numbers 
     1.0000   1.0000   1.0000   1.0000   1.0000   1.0000   1.0000   1.0000
     0.0000   0.0000   0.0000   0.0000   0.0000   0.0000   0.0000   0.0000

          k =-0.1667 0.5000-0.1667 (  1484 PWs)   bands (ev):

   -73.6386 -34.9247 -34.8782 -34.8778 -12.1459   3.3937   5.8607   6.0314
    18.7864  21.9921  26.2460  28.2603  29.4641  33.9619  36.2217  40.5538

     occupation numbers 
     1.0000   1.0000   1.0000   1.0000   1.0000   1.0000   1.0000   1.0000
     0.0000   0.0000   0.0000   0.0000   0.0000   0.0000   0.0000   0.0000

          k = 0.6667-0.3333 0.6667 (  1493 PWs)   bands (ev):

   -73.6357 -34.9548 -34.8866 -34.8785 -11.6432   2.1658   5.2179   5.8759
    19.4074  23.1700  25.1014  28.0943  31.1474  34.6797  35.6147  40.7582

     occupation numbers 
     1.0000   1.0000   1.0000   1.0000   1.0000   1.0000   1.0000   1.0000
     0.0000   0.0000   0.0000   0.0000   0.0000   0.0000   0.0000   0.0000

          k = 0.5000-0.1667 0.5000 (  1499 PWs)   bands (ev):

   -73.6367 -34.9472 -34.8913 -34.8722 -11.7590   2.4739   5.0992   6.0845
    19.4476  22.9566  25.3884  28.1773  31.6935  32.4632  35.6689  41.2396

     occupation numbers 
     1.0000   1.0000   1.0000   1.0000   1.0000   1.0000   1.0000   1.0000
     0.0000   0.0000   0.0000   0.0000   0.0000   0.0000   0.0000   0.0000

          k = 0.3333 0.0000 0.3333 (  1492 PWs)   bands (ev):

   -73.6398 -34.9140 -34.8813 -34.8659 -12.3536   3.9154   5.7902   6.4718
    18.1194  22.7173  26.7076  28.3658  29.3472  32.2449  35.7788  38.1999

     occupation numbers 
     1.0000   1.0000   1.0000   1.0000   1.0000   1.0000   1.0000   1.0000
     0.0000   0.0000   0.0000   0.0000   0.0000   0.0000   0.0000   0.0000

          k = 0.0000 0.6667 0.0000 (  1479 PWs)   bands (ev):

   -73.6372 -34.9308 -34.8891 -34.8891 -11.8746   2.9982   5.6546   5.6546
    19.9094  20.2209  24.8594  29.5861  29.5867  35.9438  38.7998  40.8337

     occupation numbers 
     1.0000   1.0000   1.0000   1.0000   1.0000   1.0000   1.0000   1.0000
     0.0000   0.0000   0.0000   0.0000   0.0000   0.0000   0.0000   0.0000

          k = 0.8333-0.1667 0.8333 (  1501 PWs)   bands (ev):

   -73.6346 -34.9423 -34.9033 -34.8909 -11.5359   2.6170   4.7120   5.4979
    20.0895  21.4789  23.9406  29.7479  29.8637  37.2280  38.4196  40.3378

     occupation numbers 
     1.0000   1.0000   1.0000   1.0000   1.0000   1.0000   1.0000   1.0000
     0.0000   0.0000   0.0000   0.0000   0.0000   0.0000   0.0000   0.0000

          k = 0.6667-0.0000 0.6667 (  1516 PWs)   bands (ev):

   -73.6355 -34.9308 -34.9250 -34.8832 -11.4725   3.2295   3.4225   5.7010
    20.8010  23.0698  23.4503  29.1124  29.8891  34.1555  39.1427  39.9218

     occupation numbers 
     1.0000   1.0000   1.0000   1.0000   1.0000   1.0000   1.0000   1.0000
     0.0000   0.0000   0.0000   0.0000   0.0000   0.0000   0.0000   0.0000

          k = 0.0000-1.0000 0.0000 (  1524 PWs)   bands (ev):

   -73.6338 -34.9498 -34.8972 -34.8972 -11.4770   2.2830   5.3201   5.3201
    19.2471  20.5247  24.2830  30.6006  30.6006  36.8854  38.2741  42.1185

     occupation numbers 
     1.0000   1.0000   1.0000   1.0000   1.0000   1.0000   1.0000   1.0000
     0.0000   0.0000   0.0000   0.0000   0.0000   0.0000   0.0000   0.0000

          k = 0.6667-0.3333 1.0000 (  1492 PWs)   bands (ev):

   -73.6356 -34.9363 -34.9006 -34.8817 -11.7098   2.8777   4.7722   5.6775
    20.7154  21.5293  24.4267  28.4765  30.6341  34.1229  39.3381  40.0721

     occupation numbers 
     1.0000   1.0000   1.0000   1.0000   1.0000   1.0000   1.0000   1.0000
     0.0000   0.0000   0.0000   0.0000   0.0000   0.0000   0.0000   0.0000

          k = 0.5000-0.1667 0.8333 (  1498 PWs)   bands (ev):

   -73.6346 -34.9395 -34.9106 -34.8879 -11.4761   2.8273   4.0850   5.3971
    21.1625  22.7629  23.5862  27.6775  31.8940  33.3520  39.4276  39.9354

     occupation numbers 
     1.0000   1.0000   1.0000   1.0000   1.0000   1.0000   1.0000   1.0000
     0.0000   0.0000   0.0000   0.0000   0.0000   0.0000   0.0000   0.0000

          k =-0.3333-1.0000 0.0000 (  1510 PWs)   bands (ev):

   -73.6337 -34.9367 -34.9102 -34.8989 -11.4212   2.8708   4.3340   4.9533
    20.9557  22.1587  23.4437  27.7327  31.6854  35.9148  37.7709  40.1919

     occupation numbers 
     1.0000   1.0000   1.0000   1.0000   1.0000   1.0000   1.0000   1.0000
     0.0000   0.0000   0.0000   0.0000   0.0000   0.0000   0.0000   0.0000

     highest occupied, lowest unoccupied level (ev):     6.8642   14.7884

!    total energy              =    -140.85182859 Ry
     estimated scf accuracy    <          3.1E-10 Ry

     convergence has been achieved in   5 iterations

     Using ACE for calculation of exact exchange
     ACE projected onto    16 (nbndproj) and applied to    16 (nbnd) bands

     total energy              =    -140.85270801 Ry
     Harris-Foulkes estimate   =    -140.85270801 Ry
     est. exchange err (dexx)  =       0.00087942 Ry
     - averaged Fock potential =      19.49185130 Ry
     + Fock energy (ACE)       =      -9.75447749 Ry

     EXX: now go back to refine exchange calculation

     total cpu time spent up to now is      329.6 secs

     Self-consistent Calculation

     iteration #  1     ecut=    80.00 Ry     beta= 0.70
     Davidson diagonalization with overlap

---- Real-time Memory Report at c_bands before calling an iterative solver
           204 MiB given to the printing process from OS
             0 MiB allocation reported by mallinfo(arena+hblkhd)
         11918 MiB available memory on the node where the printing process lives
------------------
     ethr =  7.14E-11,  avg # of iterations =  5.1

     total cpu time spent up to now is      329.8 secs

     total energy              =    -140.85283314 Ry
     estimated scf accuracy    <       0.00001778 Ry

     iteration #  2     ecut=    80.00 Ry     beta= 0.70
     Davidson diagonalization with overlap

---- Real-time Memory Report at c_bands before calling an iterative solver
           204 MiB given to the printing process from OS
             0 MiB allocation reported by mallinfo(arena+hblkhd)
         11922 MiB available memory on the node where the printing process lives
------------------
     ethr =  1.11E-07,  avg # of iterations =  1.9

     total cpu time spent up to now is      329.9 secs

     total energy              =    -140.85283339 Ry
     estimated scf accuracy    <       0.00000134 Ry

     iteration #  3     ecut=    80.00 Ry     beta= 0.70
     Davidson diagonalization with overlap

---- Real-time Memory Report at c_bands before calling an iterative solver
           204 MiB given to the printing process from OS
             0 MiB allocation reported by mallinfo(arena+hblkhd)
         11923 MiB available memory on the node where the printing process lives
------------------
     ethr =  8.35E-09,  avg # of iterations =  2.0

     total cpu time spent up to now is      330.1 secs

     total energy              =    -140.85283355 Ry
     estimated scf accuracy    <       0.00000047 Ry

     iteration #  4     ecut=    80.00 Ry     beta= 0.70
     Davidson diagonalization with overlap

---- Real-time Memory Report at c_bands before calling an iterative solver
           204 MiB given to the printing process from OS
             0 MiB allocation reported by mallinfo(arena+hblkhd)
         11923 MiB available memory on the node where the printing process lives
------------------
     ethr =  2.93E-09,  avg # of iterations =  1.9

     total cpu time spent up to now is      330.2 secs

     End of self-consistent calculation

          k = 0.0000 0.0000 0.0000 (  1459 PWs)   bands (ev):

   -73.6550 -34.8785 -34.8785 -34.8785 -13.1227   6.8395   6.8395   6.8395
    14.8579  26.4209  26.4209  26.4209  30.2624  32.5289  32.5289  36.1268

     occupation numbers 
     1.0000   1.0000   1.0000   1.0000   1.0000   1.0000   1.0000   1.0000
     0.0000   0.0000   0.0000   0.0000   0.0000   0.0000   0.0000   0.0000

          k =-0.1667 0.1667-0.1667 (  1489 PWs)   bands (ev):

   -73.6526 -34.9045 -34.8803 -34.8803 -12.8110   5.1845   6.6300   6.6300
    16.4179  24.0319  27.0874  27.0874  31.3500  31.3500  33.4471  36.4881

     occupation numbers 
     1.0000   1.0000   1.0000   1.0000   1.0000   1.0000   1.0000   1.0000
     0.0000   0.0000   0.0000   0.0000   0.0000   0.0000   0.0000   0.0000

          k =-0.3333 0.3333-0.3333 (  1501 PWs)   bands (ev):

   -73.6491 -34.9561 -34.8848 -34.8848 -12.1108   2.7358   6.2460   6.2460
    18.0502  23.1933  27.5012  27.5012  32.0681  32.0681  32.6734  40.5708

     occupation numbers 
     1.0000   1.0000   1.0000   1.0000   1.0000   1.0000   1.0000   1.0000
     0.0000   0.0000   0.0000   0.0000   0.0000   0.0000   0.0000   0.0000

          k = 0.5000-0.5000 0.5000 (  1502 PWs)   bands (ev):

   -73.6465 -34.9814 -34.8866 -34.8866 -11.7181   1.6653   6.0639   6.0639
    18.2272  23.7881  27.2847  27.2847  32.0034  33.8474  33.8474  39.9678

     occupation numbers 
     1.0000   1.0000   1.0000   1.0000   1.0000   1.0000   1.0000   1.0000
     0.0000   0.0000   0.0000   0.0000   0.0000   0.0000   0.0000   0.0000

          k = 0.0000 0.3333 0.0000 (  1491 PWs)   bands (ev):

   -73.6518 -34.9015 -34.8865 -34.8865 -12.7190   5.0961   6.3922   6.3922
    16.9605  23.1054  27.5363  27.5363  28.7690  33.4272  35.4755  37.3699

     occupation numbers 
     1.0000   1.0000   1.0000   1.0000   1.0000   1.0000   1.0000   1.0000
     0.0000   0.0000   0.0000   0.0000   0.0000   0.0000   0.0000   0.0000

          k =-0.1667 0.5000-0.1667 (  1484 PWs)   bands (ev):

   -73.6484 -34.9388 -34.8927 -34.8922 -12.1720   3.3980   5.8465   6.0127
    18.8226  22.0222  26.2663  28.2762  29.4825  33.9711  36.2383  40.5700

     occupation numbers 
     1.0000   1.0000   1.0000   1.0000   1.0000   1.0000   1.0000   1.0000
     0.0000   0.0000   0.0000   0.0000   0.0000   0.0000   0.0000   0.0000

          k = 0.6667-0.3333 0.6667 (  1493 PWs)   bands (ev):

   -73.6455 -34.9687 -34.9010 -34.8929 -11.6729   2.1745   5.2076   5.8575
    19.4441  23.2000  25.1248  28.1095  31.1675  34.6985  35.6325  40.7507

     occupation numbers 
     1.0000   1.0000   1.0000   1.0000   1.0000   1.0000   1.0000   1.0000
     0.0000   0.0000   0.0000   0.0000   0.0000   0.0000   0.0000   0.0000

          k = 0.5000-0.1667 0.5000 (  1499 PWs)   bands (ev):

   -73.6465 -34.9611 -34.9056 -34.8867 -11.7880   2.4815   5.0900   6.0645
    19.4839  22.9856  25.4120  28.1917  31.7086  32.4846  35.6852  41.2453

     occupation numbers 
     1.0000   1.0000   1.0000   1.0000   1.0000   1.0000   1.0000   1.0000
     0.0000   0.0000   0.0000   0.0000   0.0000   0.0000   0.0000   0.0000

          k = 0.3333 0.0000 0.3333 (  1492 PWs)   bands (ev):

   -73.6497 -34.9282 -34.8958 -34.8805 -12.3779   3.9180   5.7769   6.4506
    18.1577  22.7467  26.7274  28.3805  29.3589  32.2600  35.7944  38.2101

     occupation numbers 
     1.0000   1.0000   1.0000   1.0000   1.0000   1.0000   1.0000   1.0000
     0.0000   0.0000   0.0000   0.0000   0.0000   0.0000   0.0000   0.0000

          k = 0.0000 0.6667 0.0000 (  1479 PWs)   bands (ev):

   -73.6468 -34.9446 -34.9035 -34.9035 -11.9035   3.0027   5.6372   5.6372
    19.9432  20.2567  24.8847  29.6079  29.6079  35.9437  38.8150  40.8480

     occupation numbers 
     1.0000   1.0000   1.0000   1.0000   1.0000   1.0000   1.0000   1.0000
     0.0000   0.0000   0.0000   0.0000   0.0000   0.0000   0.0000   0.0000

          k = 0.8333-0.1667 0.8333 (  1501 PWs)   bands (ev):

   -73.6444 -34.9562 -34.9176 -34.9054 -11.5667   2.6223   4.7038   5.4812
    20.1247  21.5110  23.9685  29.7691  29.8867  37.2379  38.4286  40.3408

     occupation numbers 
     1.0000   1.0000   1.0000   1.0000   1.0000   1.0000   1.0000   1.0000
     0.0000   0.0000   0.0000   0.0000   0.0000   0.0000   0.0000   0.0000

          k = 0.6667-0.0000 0.6667 (  1516 PWs)   bands (ev):

   -73.6451 -34.9447 -34.9390 -34.8975 -11.5047   3.2316   3.4226   5.6824
    20.8338  23.0986  23.4800  29.1300  29.9075  34.1677  39.1585  39.9303

     occupation numbers 
     1.0000   1.0000   1.0000   1.0000   1.0000   1.0000   1.0000   1.0000
     0.0000   0.0000   0.0000   0.0000   0.0000   0.0000   0.0000   0.0000

          k = 0.0000-1.0000 0.0000 (  1524 PWs)   bands (ev):

   -73.6437 -34.9637 -34.9116 -34.9116 -11.5079   2.2893   5.3045   5.3045
    19.2851  20.5614  24.3137  30.6267  30.6267  36.8937  38.2694  42.1288

     occupation numbers 
     1.0000   1.0000   1.0000   1.0000   1.0000   1.0000   1.0000   1.0000
     0.0000   0.0000   0.0000   0.0000   0.0000   0.0000   0.0000   0.0000

          k = 0.6667-0.3333 1.0000 (  1492 PWs)   bands (ev):

   -73.6455 -34.9503 -34.9149 -34.8961 -11.7389   2.8830   4.7642   5.6626
    20.7463  21.5599  24.4527  28.4964  30.6523  34.1372  39.3526  40.0726

     occupation numbers 
     1.0000   1.0000   1.0000   1.0000   1.0000   1.0000   1.0000   1.0000
     0.0000   0.0000   0.0000   0.0000   0.0000   0.0000   0.0000   0.0000

          k = 0.5000-0.1667 0.8333 (  1498 PWs)   bands (ev):

   -73.6443 -34.9534 -34.9248 -34.9022 -11.5074   2.8317   4.0815   5.3837
    21.1929  22.7920  23.6149  27.6975  31.9080  33.3709  39.4313  39.9325

     occupation numbers 
     1.0000   1.0000   1.0000   1.0000   1.0000   1.0000   1.0000   1.0000
     0.0000   0.0000   0.0000   0.0000   0.0000   0.0000   0.0000   0.0000

          k =-0.3333-1.0000 0.0000 (  1510 PWs)   bands (ev):

   -73.6436 -34.9506 -34.9244 -34.9132 -11.4527   2.8739   4.3290   4.9425
    20.9873  22.1903  23.4728  27.7537  31.7084  35.9292  37.7733  40.2025

     occupation numbers 
     1.0000   1.0000   1.0000   1.0000   1.0000   1.0000   1.0000   1.0000
     0.0000   0.0000   0.0000   0.0000   0.0000   0.0000   0.0000   0.0000

     highest occupied, lowest unoccupied level (ev):     6.8395   14.8579

!    total energy              =    -140.85283365 Ry
     estimated scf accuracy    <          5.5E-10 Ry

     convergence has been achieved in   4 iterations

     Using ACE for calculation of exact exchange
     ACE projected onto    16 (nbndproj) and applied to    16 (nbnd) bands

     total energy              =    -140.85285277 Ry
     Harris-Foulkes estimate   =    -140.85285277 Ry
     est. exchange err (dexx)  =       0.00001912 Ry
     - averaged Fock potential =      19.51146847 Ry
     + Fock energy (ACE)       =      -9.75701009 Ry

     EXX: now go back to refine exchange calculation

     total cpu time spent up to now is      476.9 secs

     Self-consistent Calculation

     iteration #  1     ecut=    80.00 Ry     beta= 0.70
     Davidson diagonalization with overlap

---- Real-time Memory Report at c_bands before calling an iterative solver
           204 MiB given to the printing process from OS
             0 MiB allocation reported by mallinfo(arena+hblkhd)
         11917 MiB available memory on the node where the printing process lives
------------------
     ethr =  2.93E-09,  avg # of iterations =  3.1

     total cpu time spent up to now is      477.0 secs

     total energy              =    -140.85285578 Ry
     estimated scf accuracy    <       0.00000045 Ry

     iteration #  2     ecut=    80.00 Ry     beta= 0.70
     Davidson diagonalization with overlap

---- Real-time Memory Report at c_bands before calling an iterative solver
           204 MiB given to the printing process from OS
             0 MiB allocation reported by mallinfo(arena+hblkhd)
         11917 MiB available memory on the node where the printing process lives
------------------
     ethr =  2.78E-09,  avg # of iterations =  1.5

     total cpu time spent up to now is      477.1 secs

     total energy              =    -140.85285579 Ry
     estimated scf accuracy    <       0.00000003 Ry

     iteration #  3     ecut=    80.00 Ry     beta= 0.70
     Davidson diagonalization with overlap

---- Real-time Memory Report at c_bands before calling an iterative solver
           204 MiB given to the printing process from OS
             0 MiB allocation reported by mallinfo(arena+hblkhd)
         11917 MiB available memory on the node where the printing process lives
------------------
     ethr =  2.01E-10,  avg # of iterations =  2.0

     total cpu time spent up to now is      477.2 secs

     End of self-consistent calculation

          k = 0.0000 0.0000 0.0000 (  1459 PWs)   bands (ev):

   -73.6563 -34.8809 -34.8809 -34.8809 -13.1237   6.8358   6.8358   6.8358
    14.8708  26.4238  26.4238  26.4238  30.2678  32.5293  32.5293  36.1294

     occupation numbers 
     1.0000   1.0000   1.0000   1.0000   1.0000   1.0000   1.0000   1.0000
     0.0000   0.0000   0.0000   0.0000   0.0000   0.0000   0.0000   0.0000

          k =-0.1667 0.1667-0.1667 (  1489 PWs)   bands (ev):

   -73.6539 -34.9068 -34.8826 -34.8826 -12.8121   5.1844   6.6266   6.6266
    16.4273  24.0365  27.0903  27.0903  31.3512  31.3512  33.4512  36.4911

     occupation numbers 
     1.0000   1.0000   1.0000   1.0000   1.0000   1.0000   1.0000   1.0000
     0.0000   0.0000   0.0000   0.0000   0.0000   0.0000   0.0000   0.0000

          k =-0.3333 0.3333-0.3333 (  1501 PWs)   bands (ev):

   -73.6504 -34.9583 -34.8871 -34.8871 -12.1127   2.7374   6.2429   6.2429
    18.0583  23.1984  27.5037  27.5037  32.0707  32.0707  32.6775  40.5742

     occupation numbers 
     1.0000   1.0000   1.0000   1.0000   1.0000   1.0000   1.0000   1.0000
     0.0000   0.0000   0.0000   0.0000   0.0000   0.0000   0.0000   0.0000

          k = 0.5000-0.5000 0.5000 (  1502 PWs)   bands (ev):

   -73.6478 -34.9836 -34.8889 -34.8889 -11.7203   1.6675   6.0609   6.0609
    18.2354  23.7935  27.2871  27.2871  32.0077  33.8513  33.8513  39.9698

     occupation numbers 
     1.0000   1.0000   1.0000   1.0000   1.0000   1.0000   1.0000   1.0000
     0.0000   0.0000   0.0000   0.0000   0.0000   0.0000   0.0000   0.0000

          k = 0.0000 0.3333 0.0000 (  1491 PWs)   bands (ev):

   -73.6531 -34.9038 -34.8888 -34.8888 -12.7202   5.0963   6.3892   6.3892
    16.9689  23.1102  27.5394  27.5394  28.7712  33.4275  35.4792  37.3723

     occupation numbers 
     1.0000   1.0000   1.0000   1.0000   1.0000   1.0000   1.0000   1.0000
     0.0000   0.0000   0.0000   0.0000   0.0000   0.0000   0.0000   0.0000

          k =-0.1667 0.5000-0.1667 (  1484 PWs)   bands (ev):

   -73.6497 -34.9411 -34.8950 -34.8945 -12.1737   3.3992   5.8444   6.0100
    18.8295  22.0275  26.2696  28.2792  29.4857  33.9727  36.2413  40.5729

     occupation numbers 
     1.0000   1.0000   1.0000   1.0000   1.0000   1.0000   1.0000   1.0000
     0.0000   0.0000   0.0000   0.0000   0.0000   0.0000   0.0000   0.0000

          k = 0.6667-0.3333 0.6667 (  1493 PWs)   bands (ev):

   -73.6468 -34.9709 -34.9033 -34.8952 -11.6751   2.1763   5.2062   5.8548
    19.4508  23.2052  25.1287  28.1121  31.1712  34.7020  35.6356  40.7479

     occupation numbers 
     1.0000   1.0000   1.0000   1.0000   1.0000   1.0000   1.0000   1.0000
     0.0000   0.0000   0.0000   0.0000   0.0000   0.0000   0.0000   0.0000

          k = 0.5000-0.1667 0.5000 (  1499 PWs)   bands (ev):

   -73.6477 -34.9634 -34.9079 -34.8890 -11.7901   2.4831   5.0888   6.0616
    19.4906  22.9907  25.4159  28.1941  31.7113  32.4884  35.6881  41.2460

     occupation numbers 
     1.0000   1.0000   1.0000   1.0000   1.0000   1.0000   1.0000   1.0000
     0.0000   0.0000   0.0000   0.0000   0.0000   0.0000   0.0000   0.0000

          k = 0.3333 0.0000 0.3333 (  1492 PWs)   bands (ev):

   -73.6510 -34.9305 -34.8981 -34.8828 -12.3794   3.9191   5.7748   6.4475
    18.1650  22.7519  26.7308  28.3831  29.3608  32.2626  35.7977  38.2120

     occupation numbers 
     1.0000   1.0000   1.0000   1.0000   1.0000   1.0000   1.0000   1.0000
     0.0000   0.0000   0.0000   0.0000   0.0000   0.0000   0.0000   0.0000

          k = 0.0000 0.6667 0.0000 (  1479 PWs)   bands (ev):

   -73.6480 -34.9469 -34.9058 -34.9058 -11.9056   3.0040   5.6347   5.6347
    19.9494  20.2628  24.8890  29.6118  29.6118  35.9436  38.8179  40.8506

     occupation numbers 
     1.0000   1.0000   1.0000   1.0000   1.0000   1.0000   1.0000   1.0000
     0.0000   0.0000   0.0000   0.0000   0.0000   0.0000   0.0000   0.0000

          k = 0.8333-0.1667 0.8333 (  1501 PWs)   bands (ev):

   -73.6456 -34.9584 -34.9199 -34.9077 -11.5689   2.6235   4.7027   5.4788
    20.1308  21.5165  23.9734  29.7728  29.8908  37.2396  38.4304  40.3412

     occupation numbers 
     1.0000   1.0000   1.0000   1.0000   1.0000   1.0000   1.0000   1.0000
     0.0000   0.0000   0.0000   0.0000   0.0000   0.0000   0.0000   0.0000

          k = 0.6667-0.0000 0.6667 (  1516 PWs)   bands (ev):

   -73.6463 -34.9470 -34.9412 -34.8998 -11.5071   3.2322   3.4230   5.6798
    20.8396  23.1037  23.4849  29.1331  29.9111  34.1698  39.1613  39.9319

     occupation numbers 
     1.0000   1.0000   1.0000   1.0000   1.0000   1.0000   1.0000   1.0000
     0.0000   0.0000   0.0000   0.0000   0.0000   0.0000   0.0000   0.0000

          k = 0.0000-1.0000 0.0000 (  1524 PWs)   bands (ev):

   -73.6449 -34.9659 -34.9139 -34.9139 -11.5102   2.2906   5.3023   5.3023
    19.2917  20.5676  24.3191  30.6313  30.6313  36.8956  38.2686  42.1306

     occupation numbers 
     1.0000   1.0000   1.0000   1.0000   1.0000   1.0000   1.0000   1.0000
     0.0000   0.0000   0.0000   0.0000   0.0000   0.0000   0.0000   0.0000

          k = 0.6667-0.3333 1.0000 (  1492 PWs)   bands (ev):

   -73.6468 -34.9526 -34.9172 -34.8984 -11.7410   2.8843   4.7631   5.6604
    20.7521  21.5653  24.4570  28.5000  30.6556  34.1399  39.3552  40.0656

     occupation numbers 
     1.0000   1.0000   1.0000   1.0000   1.0000   1.0000   1.0000   1.0000
     0.0000   0.0000   0.0000   0.0000   0.0000   0.0000   0.0000   0.0000

          k = 0.5000-0.1667 0.8333 (  1498 PWs)   bands (ev):

   -73.6456 -34.9557 -34.9271 -34.9045 -11.5097   2.8327   4.0812   5.3818
    21.1985  22.7972  23.6196  27.7011  31.9107  33.3743  39.4322  39.9282

     occupation numbers 
     1.0000   1.0000   1.0000   1.0000   1.0000   1.0000   1.0000   1.0000
     0.0000   0.0000   0.0000   0.0000   0.0000   0.0000   0.0000   0.0000

          k =-0.3333-1.0000 0.0000 (  1510 PWs)   bands (ev):

   -73.6448 -34.9529 -34.9267 -34.9155 -11.4550   2.8748   4.3284   4.9409
    20.9928  22.1956  23.4780  27.7576  31.7124  35.9318  37.7739  40.2042

     occupation numbers 
[...]
------------------
     ethr =  2.01E-10,  avg # of iterations =  2.5

     total cpu time spent up to now is      610.3 secs

     total energy              =    -140.85285634 Ry
     estimated scf accuracy    <       0.00000003 Ry

     iteration #  2     ecut=    80.00 Ry     beta= 0.70
     Davidson diagonalization with overlap

---- Real-time Memory Report at c_bands before calling an iterative solver
           204 MiB given to the printing process from OS
             0 MiB allocation reported by mallinfo(arena+hblkhd)
         11909 MiB available memory on the node where the printing process lives
------------------
     ethr =  1.64E-10,  avg # of iterations =  2.0

     total cpu time spent up to now is      610.4 secs

     End of self-consistent calculation

          k = 0.0000 0.0000 0.0000 (  1459 PWs)   bands (ev):

   -73.6564 -34.8812 -34.8812 -34.8812 -13.1238   6.8350   6.8350   6.8350
    14.8731  26.4243  26.4243  26.4243  30.2688  32.5293  32.5293  36.1299

     occupation numbers 
     1.0000   1.0000   1.0000   1.0000   1.0000   1.0000   1.0000   1.0000
     0.0000   0.0000   0.0000   0.0000   0.0000   0.0000   0.0000   0.0000

          k =-0.1667 0.1667-0.1667 (  1489 PWs)   bands (ev):

   -73.6541 -34.9071 -34.8829 -34.8829 -12.8122   5.1842   6.6258   6.6258
    16.4290  24.0373  27.0907  27.0907  31.3513  31.3513  33.4518  36.4916

     occupation numbers 
     1.0000   1.0000   1.0000   1.0000   1.0000   1.0000   1.0000   1.0000
     0.0000   0.0000   0.0000   0.0000   0.0000   0.0000   0.0000   0.0000

          k =-0.3333 0.3333-0.3333 (  1501 PWs)   bands (ev):

   -73.6505 -34.9586 -34.8874 -34.8874 -12.1129   2.7376   6.2422   6.2422
    18.0597  23.1992  27.5041  27.5041  32.0711  32.0711  32.6782  40.5747

     occupation numbers 
     1.0000   1.0000   1.0000   1.0000   1.0000   1.0000   1.0000   1.0000
     0.0000   0.0000   0.0000   0.0000   0.0000   0.0000   0.0000   0.0000

          k = 0.5000-0.5000 0.5000 (  1502 PWs)   bands (ev):

   -73.6479 -34.9839 -34.8892 -34.8892 -11.7205   1.6677   6.0603   6.0603
    18.2368  23.7944  27.2874  27.2874  32.0084  33.8519  33.8519  39.9701

     occupation numbers 
     1.0000   1.0000   1.0000   1.0000   1.0000   1.0000   1.0000   1.0000
     0.0000   0.0000   0.0000   0.0000   0.0000   0.0000   0.0000   0.0000

          k = 0.0000 0.3333 0.0000 (  1491 PWs)   bands (ev):

   -73.6532 -34.9041 -34.8891 -34.8891 -12.7203   5.0962   6.3885   6.3885
    16.9704  23.1110  27.5399  27.5399  28.7715  33.4274  35.4799  37.3727

     occupation numbers 
     1.0000   1.0000   1.0000   1.0000   1.0000   1.0000   1.0000   1.0000
     0.0000   0.0000   0.0000   0.0000   0.0000   0.0000   0.0000   0.0000

          k =-0.1667 0.5000-0.1667 (  1484 PWs)   bands (ev):

   -73.6498 -34.9414 -34.8954 -34.8948 -12.1739   3.3993   5.8439   6.0093
    18.8306  22.0284  26.2701  28.2796  29.4862  33.9729  36.2418  40.5733

     occupation numbers 
     1.0000   1.0000   1.0000   1.0000   1.0000   1.0000   1.0000   1.0000
     0.0000   0.0000   0.0000   0.0000   0.0000   0.0000   0.0000   0.0000

          k = 0.6667-0.3333 0.6667 (  1493 PWs)   bands (ev):

   -73.6470 -34.9712 -34.9036 -34.8955 -11.6753   2.1764   5.2058   5.8542
    19.4520  23.2060  25.1293  28.1125  31.1717  34.7025  35.6361  40.7469

     occupation numbers 
     1.0000   1.0000   1.0000   1.0000   1.0000   1.0000   1.0000   1.0000
     0.0000   0.0000   0.0000   0.0000   0.0000   0.0000   0.0000   0.0000

          k = 0.5000-0.1667 0.5000 (  1499 PWs)   bands (ev):

   -73.6479 -34.9636 -34.9082 -34.8893 -11.7903   2.4832   5.0884   6.0609
    19.4918  22.9915  25.4165  28.1944  31.7117  32.4891  35.6886  41.2459

     occupation numbers 
     1.0000   1.0000   1.0000   1.0000   1.0000   1.0000   1.0000   1.0000
     0.0000   0.0000   0.0000   0.0000   0.0000   0.0000   0.0000   0.0000

          k = 0.3333 0.0000 0.3333 (  1492 PWs)   bands (ev):

   -73.6511 -34.9307 -34.8984 -34.8831 -12.3796   3.9191   5.7743   6.4468
    18.1662  22.7528  26.7313  28.3835  29.3611  32.2630  35.7983  38.2123

     occupation numbers 
     1.0000   1.0000   1.0000   1.0000   1.0000   1.0000   1.0000   1.0000
     0.0000   0.0000   0.0000   0.0000   0.0000   0.0000   0.0000   0.0000

          k = 0.0000 0.6667 0.0000 (  1479 PWs)   bands (ev):

   -73.6482 -34.9472 -34.9061 -34.9061 -11.9058   3.0041   5.6341   5.6341
    19.9504  20.2638  24.8896  29.6124  29.6124  35.9435  38.8183  40.8510

     occupation numbers 
     1.0000   1.0000   1.0000   1.0000   1.0000   1.0000   1.0000   1.0000
     0.0000   0.0000   0.0000   0.0000   0.0000   0.0000   0.0000   0.0000

          k = 0.8333-0.1667 0.8333 (  1501 PWs)   bands (ev):

   -73.6458 -34.9587 -34.9202 -34.9080 -11.5692   2.6236   4.7023   5.4782
    20.1319  21.5174  23.9741  29.7733  29.8915  37.2399  38.4307  40.3410

     occupation numbers 
     1.0000   1.0000   1.0000   1.0000   1.0000   1.0000   1.0000   1.0000
     0.0000   0.0000   0.0000   0.0000   0.0000   0.0000   0.0000   0.0000

          k = 0.6667-0.0000 0.6667 (  1516 PWs)   bands (ev):

   -73.6465 -34.9473 -34.9415 -34.9001 -11.5074   3.2322   3.4229   5.6792
    20.8406  23.1045  23.4857  29.1335  29.9117  34.1702  39.1618  39.9321

     occupation numbers 
     1.0000   1.0000   1.0000   1.0000   1.0000   1.0000   1.0000   1.0000
     0.0000   0.0000   0.0000   0.0000   0.0000   0.0000   0.0000   0.0000

          k = 0.0000-1.0000 0.0000 (  1524 PWs)   bands (ev):

   -73.6451 -34.9662 -34.9142 -34.9142 -11.5105   2.2907   5.3018   5.3018
    19.2928  20.5686  24.3199  30.6319  30.6319  36.8960  38.2684  42.1309

     occupation numbers 
     1.0000   1.0000   1.0000   1.0000   1.0000   1.0000   1.0000   1.0000
     0.0000   0.0000   0.0000   0.0000   0.0000   0.0000   0.0000   0.0000

          k = 0.6667-0.3333 1.0000 (  1492 PWs)   bands (ev):

   -73.6469 -34.9529 -34.9175 -34.8987 -11.7412   2.8844   4.7628   5.6599
    20.7530  21.5662  24.4576  28.5005  30.6561  34.1403  39.3557  40.0589

     occupation numbers 
     1.0000   1.0000   1.0000   1.0000   1.0000   1.0000   1.0000   1.0000
     0.0000   0.0000   0.0000   0.0000   0.0000   0.0000   0.0000   0.0000

          k = 0.5000-0.1667 0.8333 (  1498 PWs)   bands (ev):

   -73.6458 -34.9560 -34.9274 -34.9048 -11.5100   2.8327   4.0810   5.3813
    21.1994  22.7980  23.6203  27.7017  31.9111  33.3748  39.4323  39.9258

     occupation numbers 
     1.0000   1.0000   1.0000   1.0000   1.0000   1.0000   1.0000   1.0000
     0.0000   0.0000   0.0000   0.0000   0.0000   0.0000   0.0000   0.0000

          k =-0.3333-1.0000 0.0000 (  1510 PWs)   bands (ev):

   -73.6450 -34.9532 -34.9270 -34.9158 -11.4553   2.8748   4.3282   4.9405
    20.9937  22.1964  23.4788  27.7582  31.7130  35.9322  37.7740  40.2045

     occupation numbers 
     1.0000   1.0000   1.0000   1.0000   1.0000   1.0000   1.0000   1.0000
     0.0000   0.0000   0.0000   0.0000   0.0000   0.0000   0.0000   0.0000

     highest occupied, lowest unoccupied level (ev):     6.8350   14.8731

!    total energy              =    -140.85285634 Ry
     estimated scf accuracy    <          9.5E-09 Ry

     convergence has been achieved in   2 iterations

     Using ACE for calculation of exact exchange
     ACE projected onto    16 (nbndproj) and applied to    16 (nbnd) bands

     total energy              =    -140.85285636 Ry
     Harris-Foulkes estimate   =    -140.85285636 Ry
     est. exchange err (dexx)  =       0.00000001 Ry
     - averaged Fock potential =      19.51477820 Ry
     + Fock energy (ACE)       =      -9.75741806 Ry

     EXX: now go back to refine exchange calculation

     total cpu time spent up to now is      738.5 secs

     Self-consistent Calculation

     iteration #  1     ecut=    80.00 Ry     beta= 0.70
     Davidson diagonalization with overlap

---- Real-time Memory Report at c_bands before calling an iterative solver
           204 MiB given to the printing process from OS
             0 MiB allocation reported by mallinfo(arena+hblkhd)
         11910 MiB available memory on the node where the printing process lives
------------------
     ethr =  1.64E-10,  avg # of iterations =  2.1

     total cpu time spent up to now is      738.6 secs

     total energy              =    -140.85285635 Ry
     estimated scf accuracy    <       0.00000002 Ry

     iteration #  2     ecut=    80.00 Ry     beta= 0.70
     Davidson diagonalization with overlap

---- Real-time Memory Report at c_bands before calling an iterative solver
           204 MiB given to the printing process from OS
             0 MiB allocation reported by mallinfo(arena+hblkhd)
         11910 MiB available memory on the node where the printing process lives
------------------
     ethr =  1.35E-10,  avg # of iterations =  2.0

     total cpu time spent up to now is      738.7 secs

     total energy              =    -140.85285636 Ry
     estimated scf accuracy    <       0.00000001 Ry

     iteration #  3     ecut=    80.00 Ry     beta= 0.70
     Davidson diagonalization with overlap

---- Real-time Memory Report at c_bands before calling an iterative solver
           204 MiB given to the printing process from OS
             0 MiB allocation reported by mallinfo(arena+hblkhd)
         11910 MiB available memory on the node where the printing process lives
------------------
     ethr =  8.41E-11,  avg # of iterations =  1.8

     total cpu time spent up to now is      738.8 secs

     End of self-consistent calculation

          k = 0.0000 0.0000 0.0000 (  1459 PWs)   bands (ev):

   -73.6563 -34.8811 -34.8811 -34.8811 -13.1241   6.8345   6.8345   6.8345
    14.8734  26.4244  26.4244  26.4244  30.2690  32.5293  32.5293  36.1300

     occupation numbers 
     1.0000   1.0000   1.0000   1.0000   1.0000   1.0000   1.0000   1.0000
     0.0000   0.0000   0.0000   0.0000   0.0000   0.0000   0.0000   0.0000

          k =-0.1667 0.1667-0.1667 (  1489 PWs)   bands (ev):

   -73.6540 -34.9071 -34.8829 -34.8829 -12.8126   5.1839   6.6253   6.6253
    16.4291  24.0375  27.0908  27.0908  31.3514  31.3514  33.4520  36.4918

     occupation numbers 
     1.0000   1.0000   1.0000   1.0000   1.0000   1.0000   1.0000   1.0000
     0.0000   0.0000   0.0000   0.0000   0.0000   0.0000   0.0000   0.0000

          k =-0.3333 0.3333-0.3333 (  1501 PWs)   bands (ev):

   -73.6504 -34.9585 -34.8874 -34.8874 -12.1132   2.7373   6.2417   6.2417
    18.0599  23.1992  27.5042  27.5042  32.0712  32.0712  32.6784  40.5748

     occupation numbers 
     1.0000   1.0000   1.0000   1.0000   1.0000   1.0000   1.0000   1.0000
     0.0000   0.0000   0.0000   0.0000   0.0000   0.0000   0.0000   0.0000

          k = 0.5000-0.5000 0.5000 (  1502 PWs)   bands (ev):

   -73.6478 -34.9839 -34.8892 -34.8892 -11.7209   1.6676   6.0598   6.0598
    18.2371  23.7942  27.2875  27.2875  32.0086  33.8520  33.8520  39.9702

     occupation numbers 
     1.0000   1.0000   1.0000   1.0000   1.0000   1.0000   1.0000   1.0000
     0.0000   0.0000   0.0000   0.0000   0.0000   0.0000   0.0000   0.0000

          k = 0.0000 0.3333 0.0000 (  1491 PWs)   bands (ev):

   -73.6531 -34.9040 -34.8891 -34.8891 -12.7207   5.0958   6.3880   6.3880
    16.9705  23.1112  27.5400  27.5400  28.7716  33.4274  35.4800  37.3728

     occupation numbers 
     1.0000   1.0000   1.0000   1.0000   1.0000   1.0000   1.0000   1.0000
     0.0000   0.0000   0.0000   0.0000   0.0000   0.0000   0.0000   0.0000

          k =-0.1667 0.5000-0.1667 (  1484 PWs)   bands (ev):

   -73.6497 -34.9413 -34.8953 -34.8947 -12.1742   3.3991   5.8434   6.0088
    18.8307  22.0285  26.2703  28.2797  29.4863  33.9730  36.2419  40.5733

     occupation numbers 
     1.0000   1.0000   1.0000   1.0000   1.0000   1.0000   1.0000   1.0000
     0.0000   0.0000   0.0000   0.0000   0.0000   0.0000   0.0000   0.0000

          k = 0.6667-0.3333 0.6667 (  1493 PWs)   bands (ev):

   -73.6468 -34.9712 -34.9035 -34.8955 -11.6757   2.1762   5.2054   5.8538
    19.4521  23.2060  25.1294  28.1126  31.1718  34.7026  35.6363  40.7465

     occupation numbers 
     1.0000   1.0000   1.0000   1.0000   1.0000   1.0000   1.0000   1.0000
     0.0000   0.0000   0.0000   0.0000   0.0000   0.0000   0.0000   0.0000

          k = 0.5000-0.1667 0.5000 (  1499 PWs)   bands (ev):

   -73.6478 -34.9636 -34.9081 -34.8893 -11.7907   2.4830   5.0881   6.0604
    19.4919  22.9915  25.4166  28.1945  31.7118  32.4891  35.6887  41.2458

     occupation numbers 
     1.0000   1.0000   1.0000   1.0000   1.0000   1.0000   1.0000   1.0000
     0.0000   0.0000   0.0000   0.0000   0.0000   0.0000   0.0000   0.0000

          k = 0.3333 0.0000 0.3333 (  1492 PWs)   bands (ev):

   -73.6510 -34.9307 -34.8984 -34.8830 -12.3799   3.9189   5.7739   6.4463
    18.1663  22.7529  26.7314  28.3836  29.3612  32.2631  35.7984  38.2123

     occupation numbers 
     1.0000   1.0000   1.0000   1.0000   1.0000   1.0000   1.0000   1.0000
     0.0000   0.0000   0.0000   0.0000   0.0000   0.0000   0.0000   0.0000

          k = 0.0000 0.6667 0.0000 (  1479 PWs)   bands (ev):

   -73.6481 -34.9471 -34.9060 -34.9060 -11.9062   3.0039   5.6337   5.6337
    19.9505  20.2641  24.8897  29.6124  29.6124  35.9435  38.8183  40.8512

     occupation numbers 
     1.0000   1.0000   1.0000   1.0000   1.0000   1.0000   1.0000   1.0000
     0.0000   0.0000   0.0000   0.0000   0.0000   0.0000   0.0000   0.0000

          k = 0.8333-0.1667 0.8333 (  1501 PWs)   bands (ev):

   -73.6457 -34.9586 -34.9201 -34.9079 -11.5696   2.6233   4.7019   5.4778
    20.1320  21.5175  23.9741  29.7733  29.8915  37.2399  38.4306  40.3410

     occupation numbers 
     1.0000   1.0000   1.0000   1.0000   1.0000   1.0000   1.0000   1.0000
     0.0000   0.0000   0.0000   0.0000   0.0000   0.0000   0.0000   0.0000

          k = 0.6667-0.0000 0.6667 (  1516 PWs)   bands (ev):

   -73.6464 -34.9472 -34.9414 -34.9000 -11.5078   3.2319   3.4226   5.6787
    20.8407  23.1045  23.4857  29.1336  29.9118  34.1703  39.1619  39.9320

     occupation numbers 
     1.0000   1.0000   1.0000   1.0000   1.0000   1.0000   1.0000   1.0000
     0.0000   0.0000   0.0000   0.0000   0.0000   0.0000   0.0000   0.0000

          k = 0.0000-1.0000 0.0000 (  1524 PWs)   bands (ev):

   -73.6450 -34.9661 -34.9142 -34.9142 -11.5109   2.2905   5.3013   5.3013
    19.2930  20.5688  24.3198  30.6319  30.6319  36.8960  38.2683  42.1310

     occupation numbers 
     1.0000   1.0000   1.0000   1.0000   1.0000   1.0000   1.0000   1.0000
     0.0000   0.0000   0.0000   0.0000   0.0000   0.0000   0.0000   0.0000

          k = 0.6667-0.3333 1.0000 (  1492 PWs)   bands (ev):

   -73.6468 -34.9528 -34.9175 -34.8987 -11.7416   2.8842   4.7624   5.6595
    20.7530  21.5663  24.4577  28.5005  30.6561  34.1403  39.3558  40.0538

     occupation numbers 
     1.0000   1.0000   1.0000   1.0000   1.0000   1.0000   1.0000   1.0000
     0.0000   0.0000   0.0000   0.0000   0.0000   0.0000   0.0000   0.0000

          k = 0.5000-0.1667 0.8333 (  1498 PWs)   bands (ev):

   -73.6457 -34.9559 -34.9273 -34.9047 -11.5104   2.8325   4.0807   5.3809
    21.1995  22.7980  23.6204  27.7017  31.9112  33.3749  39.4322  39.9247

     occupation numbers 
     1.0000   1.0000   1.0000   1.0000   1.0000   1.0000   1.0000   1.0000
     0.0000   0.0000   0.0000   0.0000   0.0000   0.0000   0.0000   0.0000

          k =-0.3333-1.0000 0.0000 (  1510 PWs)   bands (ev):

   -73.6449 -34.9531 -34.9270 -34.9158 -11.4557   2.8745   4.3278   4.9401
    20.9938  22.1965  23.4787  27.7583  31.7130  35.9323  37.7740  40.2044

     occupation numbers 
     1.0000   1.0000   1.0000   1.0000   1.0000   1.0000   1.0000   1.0000
     0.0000   0.0000   0.0000   0.0000   0.0000   0.0000   0.0000   0.0000

     highest occupied, lowest unoccupied level (ev):     6.8345   14.8734

!    total energy              =    -140.85285636 Ry
     estimated scf accuracy    <          7.3E-12 Ry

     convergence has been achieved in   3 iterations

     Using ACE for calculation of exact exchange
     ACE projected onto    16 (nbndproj) and applied to    16 (nbnd) bands

!!   total energy              =    -140.85285636 Ry
     Harris-Foulkes estimate   =    -140.85285636 Ry
     est. exchange err (dexx)  =          3.9E-10 Ry
     - averaged Fock potential =      19.51489035 Ry
     + Fock energy (ACE)       =      -9.75747229 Ry

     EXX self-consistency reached

     Writing all to output data dir ./out6/mgo6.save/ :
     XML data file, charge density, pseudopotentials, collected wavefunctions

     init_run     :      0.16s CPU      0.16s WALL (       1 calls)
     electrons    :      3.40s CPU      3.56s WALL (       6 calls)

     Called by init_run:
     aceinit0     :      0.00s CPU      0.00s WALL (       1 calls)
     wfcinit      :      0.04s CPU      0.04s WALL (       1 calls)
     wfcinit:wfcr :      0.04s CPU      0.04s WALL (      16 calls)
     potinit      :      0.00s CPU      0.00s WALL (       1 calls)
     hinit0       :      0.11s CPU      0.11s WALL (       1 calls)

     Called by electrons:
     c_bands      :      2.91s CPU      3.03s WALL (      24 calls)
     sum_band     :      0.41s CPU      0.42s WALL (      24 calls)
     v_of_rho     :      0.07s CPU      0.08s WALL (      26 calls)
     v_h          :      0.00s CPU      0.00s WALL (      26 calls)
     v_xc         :      0.07s CPU      0.08s WALL (      26 calls)
     mix_rho      :      0.01s CPU      0.01s WALL (      24 calls)

     Called by c_bands:
     init_us_2    :      0.02s CPU      0.02s WALL (     784 calls)
     cegterg      :      2.84s CPU      2.96s WALL (     384 calls)

     Called by sum_band:
     sum_band:wei :      0.00s CPU      0.00s WALL (      24 calls)
     sum_band:loo :      0.40s CPU      0.41s WALL (      24 calls)
     sum_band:buf :      0.00s CPU      0.00s WALL (     384 calls)
     sum_band:ini :      0.01s CPU      0.01s WALL (     384 calls)

     Called by *egterg:
     cdiaghg      :      0.39s CPU      0.41s WALL (    1333 calls)
     cegterg:over :      0.15s CPU      0.16s WALL (    1029 calls)
     cegterg:upda :      0.02s CPU      0.02s WALL (    1029 calls)
     cegterg:last :      0.03s CPU      0.03s WALL (     878 calls)
     h_psi        :      2.10s CPU      2.19s WALL (    1429 calls)
     g_psi        :      0.01s CPU      0.01s WALL (    1029 calls)

     Called by h_psi:
     h_psi:calbec :      0.10s CPU      0.10s WALL (    1429 calls)
     vloc_psi     :      1.90s CPU      1.98s WALL (    1429 calls)
                                        0.00s GPU  (    1429 calls)
     add_vuspsi   :      0.02s CPU      0.02s WALL (    1429 calls)

     General routines
     calbec       :      0.20s CPU      0.21s WALL (    2835 calls)
     fft          :      0.13s CPU      0.13s WALL (     252 calls)
     ffts         :      0.00s CPU      0.00s WALL (      24 calls)
     fftw         :      2.15s CPU      2.24s WALL (   38544 calls)
     fftc         :    752.71s CPU    774.06s WALL (10616832 calls)
     fftcw        :      0.36s CPU      0.42s WALL (    4608 calls)

     Parallel routines

     EXX routines
     exx_grid     :      0.01s CPU      0.01s WALL (       1 calls)
     exxinit      :      5.31s CPU      7.25s WALL (       6 calls)
     vexx         :    860.17s CPU    884.18s WALL (      96 calls)
     matcalc      :      0.11s CPU      0.12s WALL (    1406 calls)
     aceupdate    :      0.00s CPU      0.00s WALL (      96 calls)
     vexxace      :      0.10s CPU      0.11s WALL (    1134 calls)
     aceinit      :    860.19s CPU    884.21s WALL (      96 calls)

     PWSCF        :  14m29.22s CPU  14m55.42s WALL


   This run was terminated on:   0:16:36   1Jul2026            

=------------------------------------------------------------------------------=
   JOB DONE.
=------------------------------------------------------------------------------=
