
     Program PWSCF v.7.5 starts on 15Jun2026 at 16:43:18 

     This program is part of the open-source Quantum ESPRESSO suite
     for quantum simulation of materials; please cite
         "P. Giannozzi et al., J. Phys.:Condens. Matter 21 395502 (2009);
         "P. Giannozzi et al., J. Phys.:Condens. Matter 29 465901 (2017);
         "P. Giannozzi et al., J. Chem. Phys. 152 154105 (2020);
          URL http://www.quantum-espresso.org", 
     in publications or presentations arising from this work. More details at
     http://www.quantum-espresso.org/quote

     Parallel version (MPI & OpenMP), running on       4 processor cores
     Number of MPI processes:                 1
     Threads/MPI process:                     4

     MPI processes distributed on     1 nodes
     14508 MiB available memory on the printing compute node when the environment starts

     Reading input from mgo.scf.in

     Current dimensions of program PWSCF are:
     Max number of different atomic species (ntypx) = 10
     Max number of k-points (npk) =  40000
     Max angular momentum in pseudopotentials (lmaxx) =  4

     IMPORTANT: XC functional enforced from input :
     Exchange-correlation= HSE
                           (   1   4  12   4   0   0   0)
     EXX-fraction              =        0.25
     Any further DFT definition will be discarded
     Please, verify this is what you really want

     EXX fraction changed:   0.31
     EXX Screening parameter changed:    0.6300000

     Subspace diagonalization in iterative solution of the eigenvalue problem:
     a serial algorithm will be used

     EXX: q-point mesh:     3    3    3
     EXX: setup a grid of 189 q-points centered on each k-point
     (k+q)-points:
   0.0000000   0.0000000   0.0000000         1    1
  -0.3333333   0.3333333  -0.3333333         3    1
   0.3333333  -0.3333333   0.3333333         3   -1
   0.3333333   0.3333333   0.3333333         3    3
   0.0000000   0.6666667   0.0000000        10    1
   0.6666667   0.0000000   0.6666667        12    1
  -0.3333333  -0.3333333  -0.3333333         3   -3
  -0.6666667   0.0000000  -0.6666667        12   -1
   0.0000000  -0.6666667   0.0000000        10   -1
  -0.3333333  -0.3333333   0.3333333         3    4
  -0.6666667   0.0000000   0.0000000        10   -5
   0.0000000  -0.6666667   0.6666667        12   -5
   0.0000000   0.0000000   0.6666667        10   13
  -0.3333333   0.3333333   0.3333333         3   -2
  -0.6666667   0.6666667   0.0000000        12   13
  -0.6666667  -0.6666667   0.0000000        12   14
   0.0000000   0.6666667   0.6666667        12   -6
   0.6666667   0.0000000  -0.6666667        12   -2
   0.3333333   0.3333333  -0.3333333         3   -4
   0.0000000   0.6666667  -0.6666667        12    5
   0.6666667   0.0000000   0.0000000        10    5
   0.6666667   0.6666667   0.0000000        12  -14
  -0.6666667   0.0000000   0.6666667        12    2
   0.0000000  -0.6666667  -0.6666667        12    6
   0.0000000   0.0000000  -0.6666667        10  -13
   0.6666667  -0.6666667   0.0000000        12  -13
   0.3333333  -0.3333333  -0.3333333         3    2
  -0.1666667   0.1666667  -0.1666667         2    1
   0.5000000  -0.5000000   0.5000000         4    1
   0.1666667  -0.1666667   0.1666667         2   -1
   0.1666667   0.5000000   0.1666667         6    3
   0.8333333  -0.1666667   0.8333333        11    1
   0.5000000   0.1666667   0.5000000         8   -3
  -0.5000000  -0.1666667  -0.5000000         8    3
  -0.8333333   0.1666667  -0.8333333        11   -1
  -0.1666667  -0.5000000  -0.1666667         6   -3
  -0.5000000  -0.1666667   0.1666667         6   -8
   0.1666667  -0.8333333   0.8333333        11   -5
  -0.1666667  -0.5000000   0.5000000         8    8
  -0.1666667   0.1666667   0.5000000         6   15
  -0.5000000   0.5000000   0.1666667         8  -15
  -0.8333333   0.8333333  -0.1666667        11   13
   0.1666667   0.5000000   0.8333333        15    7
   0.8333333  -0.1666667  -0.5000000        15   12
   0.5000000   0.1666667  -0.8333333        15    4
   0.1666667   0.5000000  -0.5000000         8   -8
  -0.1666667   0.8333333  -0.8333333        11    5
   0.5000000   0.1666667  -0.1666667         6    8
  -0.5000000  -0.1666667   0.8333333        15   -4
  -0.8333333   0.1666667   0.5000000        15  -12
  -0.1666667  -0.5000000  -0.8333333        15   -7
   0.8333333  -0.8333333   0.1666667        11  -13
   0.5000000  -0.5000000  -0.1666667         8   15
   0.1666667  -0.1666667  -0.5000000         6  -15
   0.0000000   0.3333333   0.0000000         5    1
   0.6666667  -0.3333333   0.6666667         7    1
   0.3333333   0.0000000   0.3333333         9    1
  -0.6666667  -0.3333333  -0.6666667         7    3
   0.0000000  -1.0000000   0.0000000        13    1
   0.6666667   0.3333333   0.6666667         7   -3
  -0.3333333   0.0000000  -0.3333333         9   -1
  -0.6666667   0.3333333  -0.6666667         7   -1
   0.0000000  -0.3333333   0.0000000         5   -1
  -0.3333333   0.0000000   0.3333333         9    2
   0.3333333  -0.6666667   1.0000000        14   -5
   1.0000000   0.6666667  -0.3333333        14   17
  -1.0000000  -0.6666667  -0.3333333        14   18
   0.6666667  -0.3333333  -0.6666667         7   -2
   0.3333333   0.0000000  -1.0000000        16   13
   0.3333333   0.6666667   1.0000000        14    7
  -1.0000000   0.0000000  -0.3333333        16   21
   0.6666667   0.3333333  -0.6666667         7    4
  -0.6666667  -0.3333333   0.6666667         7   -4
   1.0000000   0.0000000   0.3333333        16  -21
  -0.3333333  -0.6666667  -1.0000000        14   -7
  -0.3333333   0.0000000   1.0000000        16  -13
  -0.6666667   0.3333333   0.6666667         7    2
   1.0000000   0.6666667   0.3333333        14  -18
  -1.0000000  -0.6666667   0.3333333        14  -17
  -0.3333333   0.6666667  -1.0000000        14    5
   0.3333333   0.0000000  -0.3333333         9   -2
  -0.1666667   0.5000000  -0.1666667         6    1
   0.5000000  -0.1666667   0.5000000         8    1
   0.1666667   0.1666667   0.1666667         2    3
  -0.8333333  -0.1666667  -0.8333333        11    3
   0.8333333   0.1666667   0.8333333        11   -3
  -0.5000000  -0.5000000  -0.5000000         4    3
  -0.5000000   0.1666667  -0.5000000         8   -1
   0.1666667  -0.5000000   0.1666667         6   -1
  -0.1666667  -0.1666667  -0.1666667         2   -3
  -0.5000000   0.1666667   0.1666667         6    6
   0.1666667  -0.5000000   0.8333333        15   -5
  -0.1666667  -0.1666667   0.5000000         6  -14
  -0.1666667   0.5000000   0.5000000         8   -6
   0.5000000  -0.1666667  -0.8333333        15   -2
  -0.8333333  -0.8333333  -0.1666667        11  -16
   0.1666667   0.8333333   0.8333333        11    7
   0.8333333   0.1666667  -0.5000000        15  -11
  -0.5000000  -0.5000000   0.1666667         8   14
  -0.8333333  -0.1666667   0.5000000        15   11
  -0.1666667  -0.8333333  -0.8333333        11   -7
   0.5000000   0.5000000  -0.1666667         8  -14
  -0.5000000   0.1666667   0.8333333        15    2
   0.1666667  -0.5000000  -0.5000000         8    6
   0.8333333   0.8333333   0.1666667        11   16
  -0.1666667   0.5000000  -0.8333333        15    5
   0.5000000  -0.1666667  -0.1666667         6   -6
   0.1666667   0.1666667  -0.5000000         6   14
   0.6666667  -0.3333333   1.0000000        14    1
  -0.6666667   1.0000000  -0.3333333        14   13
   0.0000000   0.3333333   0.3333333         9   -6
   0.0000000  -1.0000000   0.3333333        16   -9
   0.6666667   0.3333333   1.0000000        14   -3
   0.3333333   0.6666667   0.6666667         7    7
   0.3333333  -0.6666667   0.6666667         7   -5
   0.0000000  -0.3333333   0.3333333         9   -5
  -0.3333333   0.0000000   0.0000000         5   -5
   0.3333333  -0.6666667  -0.6666667         7    6
   0.0000000  -0.3333333  -1.0000000        16   17
   0.6666667   1.0000000  -0.3333333        14  -14
  -0.3333333   0.6666667   0.6666667         7   -6
  -0.6666667  -1.0000000   0.3333333        14   14
   0.0000000   0.3333333   1.0000000        16  -17
  -1.0000000   0.0000000   0.0000000        13    5
  -0.3333333  -0.6666667   0.6666667         7    8
   0.3333333   0.6666667  -0.6666667         7   -8
   0.0000000   1.0000000  -0.3333333        16    9
  -0.3333333  -0.6666667  -0.6666667         7   -7
  -0.6666667  -0.3333333  -1.0000000        14    3
  -0.6666667   0.3333333  -1.0000000        14   -1
   0.0000000  -0.3333333  -0.3333333         9    6
   0.6666667  -1.0000000   0.3333333        14  -13
  -0.3333333   0.6666667  -0.6666667         7    5
   0.3333333   0.0000000   0.0000000         5    5
   0.0000000   0.3333333  -0.3333333         9    5
   0.5000000  -0.1666667   0.8333333        15    1
   0.1666667   0.1666667   0.5000000         6  -16
  -0.1666667   0.5000000   0.1666667         6   -2
   0.8333333   0.1666667  -0.8333333        11    4
  -0.5000000  -0.5000000  -0.1666667         8  -16
  -0.8333333  -0.1666667  -0.5000000        15   -9
   0.1666667  -0.5000000   0.5000000         8   -5
  -0.1666667  -0.1666667   0.1666667         2    4
  -0.5000000   0.1666667  -0.1666667         6   -5
   0.1666667  -0.5000000  -0.8333333        15    6
   0.8333333   0.8333333  -0.1666667        11  -14
  -0.5000000   0.1666667   0.5000000         8    2
   0.5000000  -0.1666667  -0.5000000         8   -2
  -0.8333333  -0.8333333   0.1666667        11   14
  -0.1666667   0.5000000   0.8333333        15   -6
  -0.1666667  -0.8333333   0.8333333        11    8
   0.5000000   0.5000000  -0.5000000         4    4
   0.1666667   0.8333333  -0.8333333        11   -8
   0.8333333   0.1666667   0.5000000        15    9
   0.5000000   0.5000000   0.1666667         8   16
  -0.8333333  -0.1666667   0.8333333        11   -4
   0.1666667  -0.5000000  -0.1666667         6    2
  -0.1666667  -0.1666667  -0.5000000         6   16
  -0.5000000   0.1666667  -0.8333333        15   -1
   0.5000000  -0.1666667   0.1666667         6    5
   0.1666667   0.1666667  -0.1666667         2   -4
  -0.1666667   0.5000000  -0.5000000         8    5
  -0.3333333  -1.0000000   0.0000000        16    1
  -0.6666667  -0.6666667  -0.3333333         7  -16
  -1.0000000  -0.3333333  -0.6666667        14   -9
  -1.0000000   0.3333333  -0.6666667        14   10
  -0.3333333  -0.3333333   0.0000000         9   14
   0.3333333  -1.0000000   0.6666667        14   22
  -0.6666667   0.6666667  -0.3333333         7   13
   0.0000000   0.0000000   0.3333333         5   13
  -0.3333333   0.3333333   0.0000000         9   13
  -0.6666667   0.6666667   0.3333333         7  -15
   0.0000000   0.0000000  -1.0000000        13   13
   0.6666667  -0.6666667  -0.3333333         7   15
  -0.3333333   1.0000000   0.6666667        14   21
  -0.6666667  -0.6666667   0.3333333         7   14
  -1.0000000  -0.3333333   0.0000000        16    5
   1.0000000   0.3333333   0.0000000        16   -5
   0.6666667   0.6666667  -0.3333333         7  -14
   0.3333333  -1.0000000  -0.6666667        14  -21
   1.0000000   0.3333333   0.6666667        14    9
   0.6666667   0.6666667   0.3333333         7   16
   0.3333333   1.0000000   0.0000000        16   -1
   0.3333333  -0.3333333   0.0000000         9  -13
   0.0000000   0.0000000  -0.3333333         5  -13
   0.6666667  -0.6666667   0.3333333         7  -13
  -0.3333333   1.0000000  -0.6666667        14  -22
   0.3333333   0.3333333   0.0000000         9  -14
   1.0000000  -0.3333333   0.6666667        14  -10

     G-vector sticks info
     --------------------
     sticks:   dense  smooth     PW     G-vecs:    dense   smooth      PW
     Sum         685     685    211                12039    12039    2085

     Using Slab Decomposition



     bravais-lattice index     =            2
     lattice parameter (alat)  =       7.9104  a.u.
     unit-cell volume          =     123.7472 (a.u.)^3
     number of atoms/cell      =            2
     number of atomic types    =            2
     number of electrons       =        16.00
     number of Kohn-Sham states=           16
     kinetic-energy cutoff     =      80.0000  Ry
     charge density cutoff     =     320.0000  Ry
     cutoff for Fock operator  =     320.0000  Ry
     scf convergence threshold =      1.0E-08
     mixing beta               =       0.7000
     number of iterations used =            8  plain     mixing
     Exchange-correlation= HSE
                           (   1   4  12   4   0   0   0)
     EXX-fraction              =        0.31

     celldm(1)=   7.910400  celldm(2)=   0.000000  celldm(3)=   0.000000
     celldm(4)=   0.000000  celldm(5)=   0.000000  celldm(6)=   0.000000

     crystal axes: (cart. coord. in units of alat)
               a(1) = (  -0.500000   0.000000   0.500000 )  
               a(2) = (   0.000000   0.500000   0.500000 )  
               a(3) = (  -0.500000   0.500000   0.000000 )  

     reciprocal axes: (cart. coord. in units 2 pi/alat)
               b(1) = ( -1.000000 -1.000000  1.000000 )  
               b(2) = (  1.000000  1.000000  1.000000 )  
               b(3) = ( -1.000000  1.000000 -1.000000 )  


     PseudoPot. # 1 for Mg read from file:
     ../../../pseudos/Mg_ONCV_PBE-1.2.upf
     MD5 check sum: 330956729b1f868fdecd9f5113f6a961
     Pseudo is Norm-conserving, Zval = 10.0
     Generated using ONCVPSP code by D. R. Hamann
     Using radial grid of  602 points,  4 beta functions with: 
                l(1) =   0
                l(2) =   0
                l(3) =   1
                l(4) =   1

     PseudoPot. # 2 for O  read from file:
     ../../../pseudos/O_ONCV_PBE-1.2.upf
     MD5 check sum: e36c48deb68f4e355fffe4602be2c42c
     Pseudo is Norm-conserving, Zval =  6.0
     Generated using ONCVPSP code by D. R. Hamann
     Using radial grid of  602 points,  4 beta functions with: 
                l(1) =   0
                l(2) =   0
                l(3) =   1
                l(4) =   1

     atomic species   valence    mass     pseudopotential
     Mg               10.00    24.30500     Mg( 1.00)
     O                 6.00    15.99900     O ( 1.00)

     48 Sym. Ops., with inversion, found


                                    s                        frac. trans.

      isym =  1     identity                                     

 cryst.   s( 1) = (     1          0          0      )
                  (     0          1          0      )
                  (     0          0          1      )

 cart.    s( 1) = (  1.0000000  0.0000000  0.0000000 )
                  (  0.0000000  1.0000000  0.0000000 )
                  (  0.0000000  0.0000000  1.0000000 )


      isym =  2     180 deg rotation - cart. axis [0,0,1]        

 cryst.   s( 2) = (     0          1         -1      )
                  (     1          0         -1      )
                  (     0          0         -1      )

 cart.    s( 2) = ( -1.0000000  0.0000000  0.0000000 )
                  (  0.0000000 -1.0000000  0.0000000 )
                  (  0.0000000  0.0000000  1.0000000 )


      isym =  3     180 deg rotation - cart. axis [0,1,0]        

 cryst.   s( 3) = (    -1          0          0      )
                  (    -1          0          1      )
                  (    -1          1          0      )

 cart.    s( 3) = ( -1.0000000  0.0000000  0.0000000 )
                  (  0.0000000  1.0000000  0.0000000 )
                  (  0.0000000  0.0000000 -1.0000000 )


      isym =  4     180 deg rotation - cart. axis [1,0,0]        

 cryst.   s( 4) = (     0         -1          1      )
                  (     0         -1          0      )
                  (     1         -1          0      )

 cart.    s( 4) = (  1.0000000  0.0000000  0.0000000 )
                  (  0.0000000 -1.0000000  0.0000000 )
                  (  0.0000000  0.0000000 -1.0000000 )


      isym =  5     180 deg rotation - cart. axis [1,1,0]        

 cryst.   s( 5) = (     0         -1          0      )
                  (    -1          0          0      )
                  (     0          0         -1      )

 cart.    s( 5) = (  0.0000000  1.0000000  0.0000000 )
                  (  1.0000000  0.0000000  0.0000000 )
                  (  0.0000000  0.0000000 -1.0000000 )


      isym =  6     180 deg rotation - cart. axis [1,-1,0]       

 cryst.   s( 6) = (    -1          0          1      )
                  (     0         -1          1      )
                  (     0          0          1      )

 cart.    s( 6) = (  0.0000000 -1.0000000  0.0000000 )
                  ( -1.0000000  0.0000000  0.0000000 )
                  (  0.0000000  0.0000000 -1.0000000 )


      isym =  7      90 deg rotation - cart. axis [0,0,-1]       

 cryst.   s( 7) = (     0          1          0      )
                  (     0          1         -1      )
                  (    -1          1          0      )

 cart.    s( 7) = (  0.0000000  1.0000000  0.0000000 )
                  ( -1.0000000  0.0000000  0.0000000 )
                  (  0.0000000  0.0000000  1.0000000 )


      isym =  8      90 deg rotation - cart. axis [0,0,1]        

 cryst.   s( 8) = (     1          0         -1      )
                  (     1          0          0      )
                  (     1         -1          0      )

 cart.    s( 8) = (  0.0000000 -1.0000000  0.0000000 )
                  (  1.0000000  0.0000000  0.0000000 )
                  (  0.0000000  0.0000000  1.0000000 )


      isym =  9     180 deg rotation - cart. axis [1,0,1]        

 cryst.   s( 9) = (    -1          0          0      )
                  (     0          0         -1      )
                  (     0         -1          0      )

 cart.    s( 9) = (  0.0000000  0.0000000  1.0000000 )
                  (  0.0000000 -1.0000000  0.0000000 )
                  (  1.0000000  0.0000000  0.0000000 )


      isym = 10     180 deg rotation - cart. axis [-1,0,1]       

 cryst.   s(10) = (     1          0          0      )
                  (     1         -1          0      )
                  (     1          0         -1      )

 cart.    s(10) = (  0.0000000  0.0000000 -1.0000000 )
                  (  0.0000000 -1.0000000  0.0000000 )
                  ( -1.0000000  0.0000000  0.0000000 )


      isym = 11      90 deg rotation - cart. axis [0,1,0]        

 cryst.   s(11) = (     0          1         -1      )
                  (    -1          1          0      )
                  (     0          1          0      )

 cart.    s(11) = (  0.0000000  0.0000000  1.0000000 )
                  (  0.0000000  1.0000000  0.0000000 )
                  ( -1.0000000  0.0000000  0.0000000 )


      isym = 12      90 deg rotation - cart. axis [0,-1,0]       

 cryst.   s(12) = (     0         -1          1      )
                  (     0          0          1      )
                  (    -1          0          1      )

 cart.    s(12) = (  0.0000000  0.0000000 -1.0000000 )
                  (  0.0000000  1.0000000  0.0000000 )
                  (  1.0000000  0.0000000  0.0000000 )


      isym = 13     180 deg rotation - cart. axis [0,1,1]        

 cryst.   s(13) = (    -1          1          0      )
                  (     0          1          0      )
                  (     0          1         -1      )

 cart.    s(13) = ( -1.0000000  0.0000000  0.0000000 )
                  (  0.0000000  0.0000000  1.0000000 )
                  (  0.0000000  1.0000000  0.0000000 )


      isym = 14     180 deg rotation - cart. axis [0,1,-1]       

 cryst.   s(14) = (     0          0         -1      )
                  (     0         -1          0      )
                  (    -1          0          0      )

 cart.    s(14) = ( -1.0000000  0.0000000  0.0000000 )
                  (  0.0000000  0.0000000 -1.0000000 )
                  (  0.0000000 -1.0000000  0.0000000 )


      isym = 15      90 deg rotation - cart. axis [-1,0,0]       

 cryst.   s(15) = (     0          0          1      )
                  (    -1          0          1      )
                  (     0         -1          1      )

 cart.    s(15) = (  1.0000000  0.0000000  0.0000000 )
                  (  0.0000000  0.0000000  1.0000000 )
                  (  0.0000000 -1.0000000  0.0000000 )


      isym = 16      90 deg rotation - cart. axis [1,0,0]        

 cryst.   s(16) = (     1         -1          0      )
                  (     1          0         -1      )
                  (     1          0          0      )

 cart.    s(16) = (  1.0000000  0.0000000  0.0000000 )
                  (  0.0000000  0.0000000 -1.0000000 )
                  (  0.0000000  1.0000000  0.0000000 )


      isym = 17     120 deg rotation - cart. axis [-1,-1,-1]     

 cryst.   s(17) = (    -1          0          1      )
                  (    -1          1          0      )
                  (    -1          0          0      )

 cart.    s(17) = (  0.0000000  1.0000000  0.0000000 )
                  (  0.0000000  0.0000000  1.0000000 )
                  (  1.0000000  0.0000000  0.0000000 )


      isym = 18     120 deg rotation - cart. axis [-1,1,1]       

 cryst.   s(18) = (     0          1          0      )
                  (     0          0          1      )
                  (     1          0          0      )

 cart.    s(18) = (  0.0000000 -1.0000000  0.0000000 )
                  (  0.0000000  0.0000000  1.0000000 )
                  ( -1.0000000  0.0000000  0.0000000 )


      isym = 19     120 deg rotation - cart. axis [1,1,-1]       

 cryst.   s(19) = (     1          0         -1      )
                  (     0          0         -1      )
                  (     0          1         -1      )

 cart.    s(19) = (  0.0000000  1.0000000  0.0000000 )
                  (  0.0000000  0.0000000 -1.0000000 )
                  ( -1.0000000  0.0000000  0.0000000 )


      isym = 20     120 deg rotation - cart. axis [1,-1,1]       

 cryst.   s(20) = (     0         -1          0      )
                  (     1         -1          0      )
                  (     0         -1          1      )

 cart.    s(20) = (  0.0000000 -1.0000000  0.0000000 )
                  (  0.0000000  0.0000000 -1.0000000 )
                  (  1.0000000  0.0000000  0.0000000 )


      isym = 21     120 deg rotation - cart. axis [1,1,1]        

 cryst.   s(21) = (     0          0         -1      )
                  (     0          1         -1      )
                  (     1          0         -1      )

 cart.    s(21) = (  0.0000000  0.0000000  1.0000000 )
                  (  1.0000000  0.0000000  0.0000000 )
                  (  0.0000000  1.0000000  0.0000000 )


      isym = 22     120 deg rotation - cart. axis [-1,1,-1]      

 cryst.   s(22) = (    -1          1          0      )
                  (    -1          0          0      )
                  (    -1          0          1      )

 cart.    s(22) = (  0.0000000  0.0000000  1.0000000 )
                  ( -1.0000000  0.0000000  0.0000000 )
                  (  0.0000000 -1.0000000  0.0000000 )


      isym = 23     120 deg rotation - cart. axis [1,-1,-1]      

 cryst.   s(23) = (     0          0          1      )
                  (     1          0          0      )
                  (     0          1          0      )

 cart.    s(23) = (  0.0000000  0.0000000 -1.0000000 )
                  ( -1.0000000  0.0000000  0.0000000 )
                  (  0.0000000  1.0000000  0.0000000 )


      isym = 24     120 deg rotation - cart. axis [-1,-1,1]      

 cryst.   s(24) = (     1         -1          0      )
                  (     0         -1          1      )
                  (     0         -1          0      )

 cart.    s(24) = (  0.0000000  0.0000000 -1.0000000 )
                  (  1.0000000  0.0000000  0.0000000 )
                  (  0.0000000 -1.0000000  0.0000000 )


      isym = 25     inversion                                    

 cryst.   s(25) = (    -1          0          0      )
                  (     0         -1          0      )
                  (     0          0         -1      )

 cart.    s(25) = ( -1.0000000  0.0000000  0.0000000 )
                  (  0.0000000 -1.0000000  0.0000000 )
                  (  0.0000000  0.0000000 -1.0000000 )


      isym = 26     inv. 180 deg rotation - cart. axis [0,0,1]   

 cryst.   s(26) = (     0         -1          1      )
                  (    -1          0          1      )
                  (     0          0          1      )

 cart.    s(26) = (  1.0000000  0.0000000  0.0000000 )
                  (  0.0000000  1.0000000  0.0000000 )
                  (  0.0000000  0.0000000 -1.0000000 )


      isym = 27     inv. 180 deg rotation - cart. axis [0,1,0]   

 cryst.   s(27) = (     1          0          0      )
                  (     1          0         -1      )
                  (     1         -1          0      )

 cart.    s(27) = (  1.0000000  0.0000000  0.0000000 )
                  (  0.0000000 -1.0000000  0.0000000 )
                  (  0.0000000  0.0000000  1.0000000 )


      isym = 28     inv. 180 deg rotation - cart. axis [1,0,0]   

 cryst.   s(28) = (     0          1         -1      )
                  (     0          1          0      )
                  (    -1          1          0      )

 cart.    s(28) = ( -1.0000000  0.0000000  0.0000000 )
                  (  0.0000000  1.0000000  0.0000000 )
                  (  0.0000000  0.0000000  1.0000000 )


      isym = 29     inv. 180 deg rotation - cart. axis [1,1,0]   

 cryst.   s(29) = (     0          1          0      )
                  (     1          0          0      )
                  (     0          0          1      )

 cart.    s(29) = (  0.0000000 -1.0000000  0.0000000 )
                  ( -1.0000000  0.0000000  0.0000000 )
                  (  0.0000000  0.0000000  1.0000000 )


      isym = 30     inv. 180 deg rotation - cart. axis [1,-1,0]  

 cryst.   s(30) = (     1          0         -1      )
                  (     0          1         -1      )
                  (     0          0         -1      )

 cart.    s(30) = (  0.0000000  1.0000000  0.0000000 )
                  (  1.0000000  0.0000000  0.0000000 )
                  (  0.0000000  0.0000000  1.0000000 )


      isym = 31     inv.  90 deg rotation - cart. axis [0,0,-1]  

 cryst.   s(31) = (     0         -1          0      )
                  (     0         -1          1      )
                  (     1         -1          0      )

 cart.    s(31) = (  0.0000000 -1.0000000  0.0000000 )
                  (  1.0000000  0.0000000  0.0000000 )
                  (  0.0000000  0.0000000 -1.0000000 )


      isym = 32     inv.  90 deg rotation - cart. axis [0,0,1]   

 cryst.   s(32) = (    -1          0          1      )
                  (    -1          0          0      )
                  (    -1          1          0      )

 cart.    s(32) = (  0.0000000  1.0000000  0.0000000 )
                  ( -1.0000000  0.0000000  0.0000000 )
                  (  0.0000000  0.0000000 -1.0000000 )


      isym = 33     inv. 180 deg rotation - cart. axis [1,0,1]   

 cryst.   s(33) = (     1          0          0      )
                  (     0          0          1      )
                  (     0          1          0      )

 cart.    s(33) = (  0.0000000  0.0000000 -1.0000000 )
                  (  0.0000000  1.0000000  0.0000000 )
                  ( -1.0000000  0.0000000  0.0000000 )


      isym = 34     inv. 180 deg rotation - cart. axis [-1,0,1]  

 cryst.   s(34) = (    -1          0          0      )
                  (    -1          1          0      )
                  (    -1          0          1      )

 cart.    s(34) = (  0.0000000  0.0000000  1.0000000 )
                  (  0.0000000  1.0000000  0.0000000 )
                  (  1.0000000  0.0000000  0.0000000 )


      isym = 35     inv.  90 deg rotation - cart. axis [0,1,0]   

 cryst.   s(35) = (     0         -1          1      )
                  (     1         -1          0      )
                  (     0         -1          0      )

 cart.    s(35) = (  0.0000000  0.0000000 -1.0000000 )
                  (  0.0000000 -1.0000000  0.0000000 )
                  (  1.0000000  0.0000000  0.0000000 )


      isym = 36     inv.  90 deg rotation - cart. axis [0,-1,0]  

 cryst.   s(36) = (     0          1         -1      )
                  (     0          0         -1      )
                  (     1          0         -1      )

 cart.    s(36) = (  0.0000000  0.0000000  1.0000000 )
                  (  0.0000000 -1.0000000  0.0000000 )
                  ( -1.0000000  0.0000000  0.0000000 )


      isym = 37     inv. 180 deg rotation - cart. axis [0,1,1]   

 cryst.   s(37) = (     1         -1          0      )
                  (     0         -1          0      )
                  (     0         -1          1      )

 cart.    s(37) = (  1.0000000  0.0000000  0.0000000 )
                  (  0.0000000  0.0000000 -1.0000000 )
                  (  0.0000000 -1.0000000  0.0000000 )


      isym = 38     inv. 180 deg rotation - cart. axis [0,1,-1]  

 cryst.   s(38) = (     0          0          1      )
                  (     0          1          0      )
                  (     1          0          0      )

 cart.    s(38) = (  1.0000000  0.0000000  0.0000000 )
                  (  0.0000000  0.0000000  1.0000000 )
                  (  0.0000000  1.0000000  0.0000000 )


      isym = 39     inv.  90 deg rotation - cart. axis [-1,0,0]  

 cryst.   s(39) = (     0          0         -1      )
                  (     1          0         -1      )
                  (     0          1         -1      )

 cart.    s(39) = ( -1.0000000  0.0000000  0.0000000 )
                  (  0.0000000  0.0000000 -1.0000000 )
                  (  0.0000000  1.0000000  0.0000000 )


      isym = 40     inv.  90 deg rotation - cart. axis [1,0,0]   

 cryst.   s(40) = (    -1          1          0      )
                  (    -1          0          1      )
                  (    -1          0          0      )

 cart.    s(40) = ( -1.0000000  0.0000000  0.0000000 )
                  (  0.0000000  0.0000000  1.0000000 )
                  (  0.0000000 -1.0000000  0.0000000 )


      isym = 41     inv. 120 deg rotation - cart. axis [-1,-1,-1]

 cryst.   s(41) = (     1          0         -1      )
                  (     1         -1          0      )
                  (     1          0          0      )

 cart.    s(41) = (  0.0000000 -1.0000000  0.0000000 )
                  (  0.0000000  0.0000000 -1.0000000 )
                  ( -1.0000000  0.0000000  0.0000000 )


      isym = 42     inv. 120 deg rotation - cart. axis [-1,1,1]  

 cryst.   s(42) = (     0         -1          0      )
                  (     0          0         -1      )
                  (    -1          0          0      )

 cart.    s(42) = (  0.0000000  1.0000000  0.0000000 )
                  (  0.0000000  0.0000000 -1.0000000 )
                  (  1.0000000  0.0000000  0.0000000 )


      isym = 43     inv. 120 deg rotation - cart. axis [1,1,-1]  

 cryst.   s(43) = (    -1          0          1      )
                  (     0          0          1      )
                  (     0         -1          1      )

 cart.    s(43) = (  0.0000000 -1.0000000  0.0000000 )
                  (  0.0000000  0.0000000  1.0000000 )
                  (  1.0000000  0.0000000  0.0000000 )


      isym = 44     inv. 120 deg rotation - cart. axis [1,-1,1]  

 cryst.   s(44) = (     0          1          0      )
                  (    -1          1          0      )
                  (     0          1         -1      )

 cart.    s(44) = (  0.0000000  1.0000000  0.0000000 )
                  (  0.0000000  0.0000000  1.0000000 )
                  ( -1.0000000  0.0000000  0.0000000 )


      isym = 45     inv. 120 deg rotation - cart. axis [1,1,1]   

 cryst.   s(45) = (     0          0          1      )
                  (     0         -1          1      )
                  (    -1          0          1      )

 cart.    s(45) = (  0.0000000  0.0000000 -1.0000000 )
                  ( -1.0000000  0.0000000  0.0000000 )
                  (  0.0000000 -1.0000000  0.0000000 )


      isym = 46     inv. 120 deg rotation - cart. axis [-1,1,-1] 

 cryst.   s(46) = (     1         -1          0      )
                  (     1          0          0      )
                  (     1          0         -1      )

 cart.    s(46) = (  0.0000000  0.0000000 -1.0000000 )
                  (  1.0000000  0.0000000  0.0000000 )
                  (  0.0000000  1.0000000  0.0000000 )


      isym = 47     inv. 120 deg rotation - cart. axis [1,-1,-1] 

 cryst.   s(47) = (     0          0         -1      )
                  (    -1          0          0      )
                  (     0         -1          0      )

 cart.    s(47) = (  0.0000000  0.0000000  1.0000000 )
                  (  1.0000000  0.0000000  0.0000000 )
                  (  0.0000000 -1.0000000  0.0000000 )


      isym = 48     inv. 120 deg rotation - cart. axis [-1,-1,1] 

 cryst.   s(48) = (    -1          1          0      )
                  (     0          1         -1      )
                  (     0          1          0      )

 cart.    s(48) = (  0.0000000  0.0000000  1.0000000 )
                  ( -1.0000000  0.0000000  0.0000000 )
                  (  0.0000000  1.0000000  0.0000000 )


     point group O_h (m-3m) 
     there are 10 classes
     the character table:

       E     8C3   3C2   6C4   6C2'  i     8S6   3s_h  6S4   6s_d 
A_1g   1.00  1.00  1.00  1.00  1.00  1.00  1.00  1.00  1.00  1.00
A_2g   1.00  1.00  1.00 -1.00 -1.00  1.00  1.00  1.00 -1.00 -1.00
E_g    2.00 -1.00  2.00  0.00  0.00  2.00 -1.00  2.00  0.00  0.00
T_1g   3.00  0.00 -1.00  1.00 -1.00  3.00  0.00 -1.00  1.00 -1.00
T_2g   3.00  0.00 -1.00 -1.00  1.00  3.00  0.00 -1.00 -1.00  1.00
A_1u   1.00  1.00  1.00  1.00  1.00 -1.00 -1.00 -1.00 -1.00 -1.00
A_2u   1.00  1.00  1.00 -1.00 -1.00 -1.00 -1.00 -1.00  1.00  1.00
E_u    2.00 -1.00  2.00  0.00  0.00 -2.00  1.00 -2.00  0.00  0.00
T_1u   3.00  0.00 -1.00  1.00 -1.00 -3.00  0.00  1.00 -1.00  1.00
T_2u   3.00  0.00 -1.00 -1.00  1.00 -3.00  0.00  1.00  1.00 -1.00

     the symmetry operations in each class and the name of the first element:

     E        1
          identity                                               
     8C3     17   19   20   18   24   21   22   23
          120 deg rotation - cart. axis [-1,-1,-1]               
     3C2      2    4    3
          180 deg rotation - cart. axis [0,0,1]                  
     6C4      7    8   15   16   12   11
           90 deg rotation - cart. axis [0,0,-1]                 
     6C2'     5    6   14   13   10    9
          180 deg rotation - cart. axis [1,1,0]                  
     i       25
          inversion                                              
     8S6     41   43   44   42   48   45   46   47
          inv. 120 deg rotation - cart. axis [-1,-1,-1]          
     3s_h    26   28   27
          inv. 180 deg rotation - cart. axis [0,0,1]             
     6S4     31   32   39   40   36   35
          inv.  90 deg rotation - cart. axis [0,0,-1]            
     6s_d    29   30   38   37   34   33
          inv. 180 deg rotation - cart. axis [1,1,0]             

   Cartesian axes

     site n.     atom                  positions (alat units)
         1        Mg     tau(   1) = (   0.0000000   0.0000000   0.0000000  )
         2        O      tau(   2) = (  -0.5000000   0.5000000   0.5000000  )

   Crystallographic axes

     site n.     atom                  positions (cryst. coord.)
         1        Mg     tau(   1) = (  0.0000000  0.0000000  0.0000000  )
         2        O      tau(   2) = (  0.5000000  0.5000000  0.5000000  )

     number of k points=    16
                       cart. coord. in units 2pi/alat
        k(    1) = (   0.0000000   0.0000000   0.0000000), wk =   0.0092593
        k(    2) = (  -0.1666667   0.1666667  -0.1666667), wk =   0.0740741
        k(    3) = (  -0.3333333   0.3333333  -0.3333333), wk =   0.0740741
        k(    4) = (   0.5000000  -0.5000000   0.5000000), wk =   0.0370370
        k(    5) = (   0.0000000   0.3333333   0.0000000), wk =   0.0555556
        k(    6) = (  -0.1666667   0.5000000  -0.1666667), wk =   0.2222222
        k(    7) = (   0.6666667  -0.3333333   0.6666667), wk =   0.2222222
        k(    8) = (   0.5000000  -0.1666667   0.5000000), wk =   0.2222222
        k(    9) = (   0.3333333   0.0000000   0.3333333), wk =   0.1111111
        k(   10) = (   0.0000000   0.6666667   0.0000000), wk =   0.0555556
        k(   11) = (   0.8333333  -0.1666667   0.8333333), wk =   0.2222222
        k(   12) = (   0.6666667  -0.0000000   0.6666667), wk =   0.1111111
        k(   13) = (   0.0000000  -1.0000000   0.0000000), wk =   0.0277778
        k(   14) = (   0.6666667  -0.3333333   1.0000000), wk =   0.2222222
        k(   15) = (   0.5000000  -0.1666667   0.8333333), wk =   0.2222222
        k(   16) = (  -0.3333333  -1.0000000   0.0000000), wk =   0.1111111

                       cryst. coord.
        k(    1) = (   0.0000000   0.0000000   0.0000000), wk =   0.0092593
        k(    2) = (   0.0000000   0.0000000   0.1666667), wk =   0.0740741
        k(    3) = (   0.0000000   0.0000000   0.3333333), wk =   0.0740741
        k(    4) = (   0.0000000   0.0000000  -0.5000000), wk =   0.0370370
        k(    5) = (   0.0000000   0.1666667   0.1666667), wk =   0.0555556
        k(    6) = (   0.0000000   0.1666667   0.3333333), wk =   0.2222222
        k(    7) = (   0.0000000   0.1666667  -0.5000000), wk =   0.2222222
        k(    8) = (   0.0000000   0.1666667  -0.3333333), wk =   0.2222222
        k(    9) = (   0.0000000   0.1666667  -0.1666667), wk =   0.1111111
        k(   10) = (   0.0000000   0.3333333   0.3333333), wk =   0.0555556
        k(   11) = (   0.0000000   0.3333333  -0.5000000), wk =   0.2222222
        k(   12) = (   0.0000000   0.3333333  -0.3333333), wk =   0.1111111
        k(   13) = (   0.0000000  -0.5000000  -0.5000000), wk =   0.0277778
        k(   14) = (   0.1666667   0.3333333  -0.5000000), wk =   0.2222222
        k(   15) = (   0.1666667   0.3333333  -0.3333333), wk =   0.2222222
        k(   16) = (   0.1666667  -0.5000000  -0.3333333), wk =   0.1111111

     Dense  grid:    12039 G-vectors     FFT dimensions: (  32,  32,  32)

     Dynamical RAM for                 wfc:       0.36 MB

     Dynamical RAM for     wfc (w. buffer):       6.20 MB

     Dynamical RAM for                 EXX:    1111.22 MB

     Dynamical RAM for           str. fact:       0.37 MB

     Dynamical RAM for           local pot:       0.00 MB

     Dynamical RAM for          nlocal pot:       0.36 MB

     Dynamical RAM for                qrad:       0.91 MB

     Dynamical RAM for          rho,v,vnew:       1.30 MB

     Dynamical RAM for               rhoin:       0.43 MB

     Dynamical RAM for            rho*nmix:       2.94 MB

     Dynamical RAM for           G-vectors:       0.78 MB

     Dynamical RAM for          h,s,v(r/c):       0.05 MB

     Dynamical RAM for          <psi|beta>:       0.00 MB

     Dynamical RAM for                 psi:       0.73 MB

     Dynamical RAM for                hpsi:       0.73 MB

     Dynamical RAM for      wfcinit/wfcrot:       0.74 MB

     Estimated static dynamical RAM per process >       1.10 GB

     Estimated max dynamical RAM per process >       1.10 GB
     EXX: ACE will be initialized later

     Initial potential from superposition of free atoms

     starting charge      15.9336, renormalised to      16.0000
     Starting wfcs are random

     total cpu time spent up to now is        0.5 secs

     per-process dynamical memory:    30.4 Mb

     Self-consistent Calculation

     iteration #  1     ecut=    80.00 Ry     beta= 0.70
     Davidson diagonalization with overlap

---- Real-time Memory Report at c_bands before calling an iterative solver
            82 MiB given to the printing process from OS
            29 MiB allocation reported by mallinfo(arena+hblkhd)
         14491 MiB available memory on the node where the printing process lives
------------------
     ethr =  1.00E-02,  avg # of iterations =  7.6

     total cpu time spent up to now is        1.0 secs

     total energy              =    -140.69811897 Ry
     estimated scf accuracy    <       0.36425051 Ry

     iteration #  2     ecut=    80.00 Ry     beta= 0.70
     Davidson diagonalization with overlap

---- Real-time Memory Report at c_bands before calling an iterative solver
            87 MiB given to the printing process from OS
            32 MiB allocation reported by mallinfo(arena+hblkhd)
         14487 MiB available memory on the node where the printing process lives
------------------
     ethr =  2.28E-03,  avg # of iterations =  2.2

     total cpu time spent up to now is        1.2 secs

     total energy              =    -140.79364885 Ry
     estimated scf accuracy    <       0.29364163 Ry

     iteration #  3     ecut=    80.00 Ry     beta= 0.70
     Davidson diagonalization with overlap

---- Real-time Memory Report at c_bands before calling an iterative solver
            88 MiB given to the printing process from OS
            33 MiB allocation reported by mallinfo(arena+hblkhd)
         14486 MiB available memory on the node where the printing process lives
------------------
     ethr =  1.84E-03,  avg # of iterations =  1.8

     total cpu time spent up to now is        1.3 secs

     total energy              =    -140.85155647 Ry
     estimated scf accuracy    <       0.00149095 Ry

     iteration #  4     ecut=    80.00 Ry     beta= 0.70
     Davidson diagonalization with overlap

---- Real-time Memory Report at c_bands before calling an iterative solver
            88 MiB given to the printing process from OS
            33 MiB allocation reported by mallinfo(arena+hblkhd)
         14486 MiB available memory on the node where the printing process lives
------------------
     ethr =  9.32E-06,  avg # of iterations =  5.3

     total cpu time spent up to now is        1.6 secs

     total energy              =    -140.85188476 Ry
     estimated scf accuracy    <       0.00001516 Ry

     iteration #  5     ecut=    80.00 Ry     beta= 0.70
     Davidson diagonalization with overlap

---- Real-time Memory Report at c_bands before calling an iterative solver
            88 MiB given to the printing process from OS
            34 MiB allocation reported by mallinfo(arena+hblkhd)
         14485 MiB available memory on the node where the printing process lives
------------------
     ethr =  9.48E-08,  avg # of iterations =  2.1

     total cpu time spent up to now is        1.8 secs

     total energy              =    -140.85188766 Ry
     estimated scf accuracy    <       0.00000127 Ry

     iteration #  6     ecut=    80.00 Ry     beta= 0.70
     Davidson diagonalization with overlap

---- Real-time Memory Report at c_bands before calling an iterative solver
            89 MiB given to the printing process from OS
            34 MiB allocation reported by mallinfo(arena+hblkhd)
         14484 MiB available memory on the node where the printing process lives
------------------
     ethr =  7.95E-09,  avg # of iterations =  2.0

     total cpu time spent up to now is        2.0 secs

     total energy              =    -140.85188790 Ry
     estimated scf accuracy    <       0.00000011 Ry

     iteration #  7     ecut=    80.00 Ry     beta= 0.70
     Davidson diagonalization with overlap

---- Real-time Memory Report at c_bands before calling an iterative solver
            89 MiB given to the printing process from OS
            34 MiB allocation reported by mallinfo(arena+hblkhd)
         14484 MiB available memory on the node where the printing process lives
------------------
     ethr =  7.13E-10,  avg # of iterations =  1.1

     total cpu time spent up to now is        2.1 secs

     End of self-consistent calculation

          k = 0.0000 0.0000 0.0000 (  1459 PWs)   bands (ev):

   -63.2993 -30.0692 -30.0692 -30.0692  -8.2978   9.0035   9.0035   9.0035
    13.9554  25.0128  25.0128  25.0128  28.8647  30.8680  30.8680  33.7231

     occupation numbers 
     1.0000   1.0000   1.0000   1.0000   1.0000   1.0000   1.0000   1.0000
     0.0000   0.0000   0.0000   0.0000   0.0000   0.0000   0.0000   0.0000

          k =-0.1667 0.1667-0.1667 (  1489 PWs)   bands (ev):

   -63.2972 -30.0924 -30.0715 -30.0715  -7.9974   7.4922   8.8264   8.8264
    15.3658  22.6328  25.5973  25.5973  29.5624  29.5624  31.6020  34.5966

     occupation numbers 
     1.0000   1.0000   1.0000   1.0000   1.0000   1.0000   1.0000   1.0000
     0.0000   0.0000   0.0000   0.0000   0.0000   0.0000   0.0000   0.0000

          k =-0.3333 0.3333-0.3333 (  1501 PWs)   bands (ev):

   -63.2925 -30.1382 -30.0762 -30.0762  -7.3222   5.2988   8.4950   8.4950
    16.8523  21.5079  25.8364  25.8364  30.2315  30.2315  30.8199  38.6176

     occupation numbers 
     1.0000   1.0000   1.0000   1.0000   1.0000   1.0000   1.0000   1.0000
     0.0000   0.0000   0.0000   0.0000   0.0000   0.0000   0.0000   0.0000

          k = 0.5000-0.5000 0.5000 (  1502 PWs)   bands (ev):

   -63.2902 -30.1610 -30.0785 -30.0785  -6.9337   4.3303   8.3393   8.3393
    17.0524  21.8309  25.5764  25.5764  30.2731  31.8470  31.8470  37.9670

     occupation numbers 
     1.0000   1.0000   1.0000   1.0000   1.0000   1.0000   1.0000   1.0000
     0.0000   0.0000   0.0000   0.0000   0.0000   0.0000   0.0000   0.0000

          k = 0.0000 0.3333 0.0000 (  1491 PWs)   bands (ev):

   -63.2964 -30.0906 -30.0768 -30.0768  -7.9075   7.4146   8.6118   8.6118
    15.8500  21.8555  25.9027  25.9027  26.9872  31.7303  33.9175  35.0805

     occupation numbers 
     1.0000   1.0000   1.0000   1.0000   1.0000   1.0000   1.0000   1.0000
     0.0000   0.0000   0.0000   0.0000   0.0000   0.0000   0.0000   0.0000

          k =-0.1667 0.5000-0.1667 (  1484 PWs)   bands (ev):

   -63.2924 -30.1236 -30.0829 -30.0825  -7.3766   5.8957   8.1279   8.2789
    17.5098  20.6772  24.5817  26.4582  27.6328  32.1422  34.2728  38.0717

     occupation numbers 
     1.0000   1.0000   1.0000   1.0000   1.0000   1.0000   1.0000   1.0000
     0.0000   0.0000   0.0000   0.0000   0.0000   0.0000   0.0000   0.0000

          k = 0.6667-0.3333 0.6667 (  1493 PWs)   bands (ev):

   -63.2893 -30.1501 -30.0911 -30.0838  -6.8847   4.7887   7.5472   8.1514
    18.1564  21.4031  23.5127  26.2670  29.2801  32.7309  33.7420  38.5573

     occupation numbers 
     1.0000   1.0000   1.0000   1.0000   1.0000   1.0000   1.0000   1.0000
     0.0000   0.0000   0.0000   0.0000   0.0000   0.0000   0.0000   0.0000

          k = 0.5000-0.1667 0.5000 (  1499 PWs)   bands (ev):

   -63.2902 -30.1433 -30.0946 -30.0785  -7.0005   5.0692   7.4350   8.3399
    18.1542  21.2907  23.7488  26.3783  29.9881  30.6102  33.6644  39.0540

     occupation numbers 
     1.0000   1.0000   1.0000   1.0000   1.0000   1.0000   1.0000   1.0000
     0.0000   0.0000   0.0000   0.0000   0.0000   0.0000   0.0000   0.0000

          k = 0.3333 0.0000 0.3333 (  1492 PWs)   bands (ev):

   -63.2940 -30.1140 -30.0854 -30.0724  -7.5781   6.3625   8.0557   8.6803
    16.9002  21.3592  25.0051  26.8938  27.5026  30.4765  33.6671  36.1993

     occupation numbers 
     1.0000   1.0000   1.0000   1.0000   1.0000   1.0000   1.0000   1.0000
     0.0000   0.0000   0.0000   0.0000   0.0000   0.0000   0.0000   0.0000

          k = 0.0000 0.6667 0.0000 (  1479 PWs)   bands (ev):

   -63.2900 -30.1294 -30.0920 -30.0920  -7.1100   5.5382   7.9378   7.9378
    18.5305  19.1390  23.1326  27.5117  27.5117  34.1479  36.4868  38.8246

     occupation numbers 
     1.0000   1.0000   1.0000   1.0000   1.0000   1.0000   1.0000   1.0000
     0.0000   0.0000   0.0000   0.0000   0.0000   0.0000   0.0000   0.0000

          k = 0.8333-0.1667 0.8333 (  1501 PWs)   bands (ev):

   -63.2878 -30.1397 -30.1051 -30.0944  -6.7714   5.1885   7.0867   7.8039
    18.9228  20.0318  22.1696  27.6151  27.7931  35.3040  36.2075  38.4165

     occupation numbers 
     1.0000   1.0000   1.0000   1.0000   1.0000   1.0000   1.0000   1.0000
     0.0000   0.0000   0.0000   0.0000   0.0000   0.0000   0.0000   0.0000

          k = 0.6667-0.0000 0.6667 (  1516 PWs)   bands (ev):

   -63.2880 -30.1289 -30.1242 -30.0877  -6.7168   5.7459   5.9088   7.9915
    19.4626  21.3773  21.7986  27.0819  28.1529  32.4996  36.9957  37.6158

     occupation numbers 
     1.0000   1.0000   1.0000   1.0000   1.0000   1.0000   1.0000   1.0000
     0.0000   0.0000   0.0000   0.0000   0.0000   0.0000   0.0000   0.0000

          k = 0.0000-1.0000 0.0000 (  1524 PWs)   bands (ev):

   -63.2873 -30.1469 -30.0997 -30.0997  -6.7066   4.8838   7.6424   7.6424
    18.2137  19.2502  22.2960  28.2902  28.2902  34.8488  36.3618  40.2602

     occupation numbers 
     1.0000   1.0000   1.0000   1.0000   1.0000   1.0000   1.0000   1.0000
     0.0000   0.0000   0.0000   0.0000   0.0000   0.0000   0.0000   0.0000

          k = 0.6667-0.3333 1.0000 (  1492 PWs)   bands (ev):

   -63.2893 -30.1343 -30.1027 -30.0866  -6.9471   5.4317   7.1338   7.9745
    19.2192  20.2059  22.8284  26.4916  28.7484  32.2612  37.3061  37.7720

     occupation numbers 
     1.0000   1.0000   1.0000   1.0000   1.0000   1.0000   1.0000   1.0000
     0.0000   0.0000   0.0000   0.0000   0.0000   0.0000   0.0000   0.0000

          k = 0.5000-0.1667 0.8333 (  1498 PWs)   bands (ev):

   -63.2878 -30.1369 -30.1120 -30.0918  -6.7167   5.3790   6.5114   7.7224
    19.7325  21.1228  22.0146  25.7990  30.1091  31.3434  37.2431  37.8621

     occupation numbers 
     1.0000   1.0000   1.0000   1.0000   1.0000   1.0000   1.0000   1.0000
     0.0000   0.0000   0.0000   0.0000   0.0000   0.0000   0.0000   0.0000

          k =-0.3333-1.0000 0.0000 (  1510 PWs)   bands (ev):

   -63.2871 -30.1350 -30.1114 -30.1014  -6.6564   5.4120   6.7398   7.3175
    19.6753  20.7022  21.6554  25.8159  29.5050  34.0010  35.7242  37.8609

     occupation numbers 
     1.0000   1.0000   1.0000   1.0000   1.0000   1.0000   1.0000   1.0000
     0.0000   0.0000   0.0000   0.0000   0.0000   0.0000   0.0000   0.0000

     highest occupied, lowest unoccupied level (ev):     9.0035   13.9554

!    total energy              =    -140.85188791 Ry
     estimated scf accuracy    <          1.9E-09 Ry

     convergence has been achieved in   7 iterations

     Using ACE for calculation of exact exchange

     EXX grid:    12039 G-vectors     FFT dimensions: (  32,  32,  32)
     ACE projected onto    16 (nbndproj) and applied to    16 (nbnd) bands

     EXX: now go back to refine exchange calculation

     total cpu time spent up to now is       17.7 secs

     per-process dynamical memory:  1634.5 Mb

     Self-consistent Calculation

     iteration #  1     ecut=    80.00 Ry     beta= 0.70
     Davidson diagonalization with overlap

---- Real-time Memory Report at c_bands before calling an iterative solver
          1671 MiB given to the printing process from OS
          1596 MiB allocation reported by mallinfo(arena+hblkhd)
         12920 MiB available memory on the node where the printing process lives
------------------
     ethr =  7.13E-10,  avg # of iterations =  5.8

     total cpu time spent up to now is       18.1 secs

     total energy              =    -140.83053120 Ry
     estimated scf accuracy    <       0.00017347 Ry

     iteration #  2     ecut=    80.00 Ry     beta= 0.70
     Davidson diagonalization with overlap

---- Real-time Memory Report at c_bands before calling an iterative solver
          1671 MiB given to the printing process from OS
          1597 MiB allocation reported by mallinfo(arena+hblkhd)
         12919 MiB available memory on the node where the printing process lives
------------------
     ethr =  1.08E-06,  avg # of iterations =  1.0

     total cpu time spent up to now is       18.3 secs

     total energy              =    -140.83053086 Ry
     estimated scf accuracy    <       0.00001128 Ry

     iteration #  3     ecut=    80.00 Ry     beta= 0.70
     Davidson diagonalization with overlap

---- Real-time Memory Report at c_bands before calling an iterative solver
          1671 MiB given to the printing process from OS
          1597 MiB allocation reported by mallinfo(arena+hblkhd)
         12919 MiB available memory on the node where the printing process lives
------------------
     ethr =  7.05E-08,  avg # of iterations =  2.0

     total cpu time spent up to now is       18.5 secs

     total energy              =    -140.83053149 Ry
     estimated scf accuracy    <       0.00000216 Ry

     iteration #  4     ecut=    80.00 Ry     beta= 0.70
     Davidson diagonalization with overlap

---- Real-time Memory Report at c_bands before calling an iterative solver
          1671 MiB given to the printing process from OS
          1598 MiB allocation reported by mallinfo(arena+hblkhd)
         12918 MiB available memory on the node where the printing process lives
------------------
     ethr =  1.35E-08,  avg # of iterations =  1.6

     total cpu time spent up to now is       18.7 secs

     total energy              =    -140.83053186 Ry
     estimated scf accuracy    <       0.00000001 Ry

     iteration #  5     ecut=    80.00 Ry     beta= 0.70
     Davidson diagonalization with overlap

---- Real-time Memory Report at c_bands before calling an iterative solver
          1671 MiB given to the printing process from OS
          1598 MiB allocation reported by mallinfo(arena+hblkhd)
         12918 MiB available memory on the node where the printing process lives
------------------
     ethr =  8.38E-11,  avg # of iterations =  2.0

     total cpu time spent up to now is       18.9 secs

     End of self-consistent calculation

          k = 0.0000 0.0000 0.0000 (  1459 PWs)   bands (ev):

   -67.4547 -31.5061 -31.5061 -31.5061  -9.6332   8.6525   8.6525   8.6525
    13.8708  25.0939  25.0939  25.0939  28.9916  30.9931  30.9931  34.1408

     occupation numbers 
     1.0000   1.0000   1.0000   1.0000   1.0000   1.0000   1.0000   1.0000
     0.0000   0.0000   0.0000   0.0000   0.0000   0.0000   0.0000   0.0000

          k =-0.1667 0.1667-0.1667 (  1489 PWs)   bands (ev):

   -67.4550 -31.5295 -31.5095 -31.5095  -9.3294   7.1431   8.4778   8.4778
    15.3329  22.7345  25.7018  25.7018  29.7500  29.7500  31.8521  34.8210

     occupation numbers 
     1.0000   1.0000   1.0000   1.0000   1.0000   1.0000   1.0000   1.0000
     0.0000   0.0000   0.0000   0.0000   0.0000   0.0000   0.0000   0.0000

          k =-0.3333 0.3333-0.3333 (  1501 PWs)   bands (ev):

   -67.4486 -31.5751 -31.5126 -31.5126  -8.6860   4.8940   8.1262   8.1262
    16.8903  21.6811  26.0153  26.0153  30.4356  30.4356  31.0361  38.8896

     occupation numbers 
     1.0000   1.0000   1.0000   1.0000   1.0000   1.0000   1.0000   1.0000
     0.0000   0.0000   0.0000   0.0000   0.0000   0.0000   0.0000   0.0000

          k = 0.5000-0.5000 0.5000 (  1502 PWs)   bands (ev):

   -67.4487 -31.5978 -31.5162 -31.5162  -8.3055   3.9284   7.9702   7.9702
    17.1045  22.0961  25.7703  25.7703  30.4374  32.1053  32.1053  38.2299

     occupation numbers 
     1.0000   1.0000   1.0000   1.0000   1.0000   1.0000   1.0000   1.0000
     0.0000   0.0000   0.0000   0.0000   0.0000   0.0000   0.0000   0.0000

          k = 0.0000 0.3333 0.0000 (  1491 PWs)   bands (ev):

   -67.4550 -31.5288 -31.5146 -31.5146  -9.2389   7.0600   8.2703   8.2703
    15.8293  21.9190  26.0502  26.0503  27.1903  31.8612  34.0603  35.4439

     occupation numbers 
     1.0000   1.0000   1.0000   1.0000   1.0000   1.0000   1.0000   1.0000
     0.0000   0.0000   0.0000   0.0000   0.0000   0.0000   0.0000   0.0000

          k =-0.1667 0.5000-0.1667 (  1484 PWs)   bands (ev):

   -67.4506 -31.5614 -31.5207 -31.5191  -8.7287   5.5009   7.7927   7.9201
    17.5543  20.7669  24.7590  26.6751  27.8535  32.3304  34.5225  38.4921

     occupation numbers 
     1.0000   1.0000   1.0000   1.0000   1.0000   1.0000   1.0000   1.0000
     0.0000   0.0000   0.0000   0.0000   0.0000   0.0000   0.0000   0.0000

          k = 0.6667-0.3333 0.6667 (  1493 PWs)   bands (ev):

   -67.4486 -31.5878 -31.5288 -31.5212  -8.2564   4.3931   7.1974   7.7894
    18.2279  21.6160  23.6663  26.4986  29.5041  32.9764  33.9572  38.8670

     occupation numbers 
     1.0000   1.0000   1.0000   1.0000   1.0000   1.0000   1.0000   1.0000
     0.0000   0.0000   0.0000   0.0000   0.0000   0.0000   0.0000   0.0000

          k = 0.5000-0.1667 0.5000 (  1499 PWs)   bands (ev):

   -67.4486 -31.5809 -31.5312 -31.5162  -8.3693   4.6703   7.0877   7.9746
    18.2315  21.4719  23.9197  26.5984  30.1533  30.8256  33.9336  39.3678

     occupation numbers 
     1.0000   1.0000   1.0000   1.0000   1.0000   1.0000   1.0000   1.0000
     0.0000   0.0000   0.0000   0.0000   0.0000   0.0000   0.0000   0.0000

          k = 0.3333 0.0000 0.3333 (  1492 PWs)   bands (ev):

   -67.4528 -31.5519 -31.5234 -31.5100  -8.9187   5.9762   7.7253   8.3314
    16.9241  21.4618  25.1947  26.9866  27.7299  30.6562  34.0006  36.4340

     occupation numbers 
     1.0000   1.0000   1.0000   1.0000   1.0000   1.0000   1.0000   1.0000
     0.0000   0.0000   0.0000   0.0000   0.0000   0.0000   0.0000   0.0000

          k = 0.0000 0.6667 0.0000 (  1479 PWs)   bands (ev):

   -67.4463 -31.5652 -31.5285 -31.5285  -8.4874   5.1414   7.5676   7.5676
    18.6000  19.1848  23.3317  27.8235  27.8235  34.3053  36.8278  39.0827

     occupation numbers 
     1.0000   1.0000   1.0000   1.0000   1.0000   1.0000   1.0000   1.0000
     0.0000   0.0000   0.0000   0.0000   0.0000   0.0000   0.0000   0.0000

          k = 0.8333-0.1667 0.8333 (  1501 PWs)   bands (ev):

   -67.4465 -31.5758 -31.5424 -31.5320  -8.1562   4.8060   6.7264   7.4330
    18.9797  20.1353  22.3854  27.9489  28.0986  35.5208  36.5069  38.6171

     occupation numbers 
     1.0000   1.0000   1.0000   1.0000   1.0000   1.0000   1.0000   1.0000
     0.0000   0.0000   0.0000   0.0000   0.0000   0.0000   0.0000   0.0000

          k = 0.6667-0.0000 0.6667 (  1516 PWs)   bands (ev):

   -67.4445 -31.5654 -31.5598 -31.5239  -8.1151   5.3581   5.5358   7.6149
    19.5670  21.5742  21.9553  27.3830  28.3235  32.6445  37.3211  37.9511

     occupation numbers 
     1.0000   1.0000   1.0000   1.0000   1.0000   1.0000   1.0000   1.0000
     0.0000   0.0000   0.0000   0.0000   0.0000   0.0000   0.0000   0.0000

          k = 0.0000-1.0000 0.0000 (  1524 PWs)   bands (ev):

   -67.4468 -31.5835 -31.5371 -31.5371  -8.0937   4.5047   7.2744   7.2744
    18.2429  19.2965  22.5966  28.6869  28.6869  35.0718  36.5399  40.4505

     occupation numbers 
     1.0000   1.0000   1.0000   1.0000   1.0000   1.0000   1.0000   1.0000
     0.0000   0.0000   0.0000   0.0000   0.0000   0.0000   0.0000   0.0000

          k = 0.6667-0.3333 1.0000 (  1492 PWs)   bands (ev):

   -67.4485 -31.5716 -31.5400 -31.5244  -8.3163   5.0407   6.7791   7.6267
    19.3327  20.2992  22.9830  26.7731  28.9888  32.4706  37.5823  38.1174

     occupation numbers 
     1.0000   1.0000   1.0000   1.0000   1.0000   1.0000   1.0000   1.0000
     0.0000   0.0000   0.0000   0.0000   0.0000   0.0000   0.0000   0.0000

          k = 0.5000-0.1667 0.8333 (  1498 PWs)   bands (ev):

   -67.4465 -31.5741 -31.5493 -31.5285  -8.1030   4.9954   6.1450   7.3683
    19.8481  21.3076  22.1481  26.0428  30.2996  31.6217  37.5362  38.1398

     occupation numbers 
     1.0000   1.0000   1.0000   1.0000   1.0000   1.0000   1.0000   1.0000
     0.0000   0.0000   0.0000   0.0000   0.0000   0.0000   0.0000   0.0000

          k =-0.3333-1.0000 0.0000 (  1510 PWs)   bands (ev):

   -67.4466 -31.5715 -31.5489 -31.5390  -8.0441   5.0367   6.3867   6.9489
    19.7606  20.7968  21.8844  26.0662  29.8532  34.2356  35.9573  38.2060

     occupation numbers 
     1.0000   1.0000   1.0000   1.0000   1.0000   1.0000   1.0000   1.0000
     0.0000   0.0000   0.0000   0.0000   0.0000   0.0000   0.0000   0.0000

     highest occupied, lowest unoccupied level (ev):     8.6525   13.8708

!    total energy              =    -140.83053186 Ry
     estimated scf accuracy    <          1.8E-09 Ry

     convergence has been achieved in   5 iterations

     Using ACE for calculation of exact exchange
     ACE projected onto    16 (nbndproj) and applied to    16 (nbnd) bands

     total energy              =    -140.83059001 Ry
     Harris-Foulkes estimate   =    -140.83059001 Ry
     est. exchange err (dexx)  =       0.00005815 Ry
     - averaged Fock potential =       6.63992244 Ry
     + Fock energy (ACE)       =      -3.32220994 Ry

     EXX: now go back to refine exchange calculation

     total cpu time spent up to now is       34.3 secs

     per-process dynamical memory:  1632.2 Mb

     Self-consistent Calculation

     iteration #  1     ecut=    80.00 Ry     beta= 0.70
     Davidson diagonalization with overlap

---- Real-time Memory Report at c_bands before calling an iterative solver
          1671 MiB given to the printing process from OS
          1593 MiB allocation reported by mallinfo(arena+hblkhd)
         12922 MiB available memory on the node where the printing process lives
------------------
     ethr =  8.38E-11,  avg # of iterations =  4.0

     total cpu time spent up to now is       34.5 secs

     total energy              =    -140.83059239 Ry
     estimated scf accuracy    <       0.00000046 Ry

     iteration #  2     ecut=    80.00 Ry     beta= 0.70
     Davidson diagonalization with overlap

---- Real-time Memory Report at c_bands before calling an iterative solver
          1671 MiB given to the printing process from OS
          1597 MiB allocation reported by mallinfo(arena+hblkhd)
         12918 MiB available memory on the node where the printing process lives
------------------
     ethr =  2.91E-09,  avg # of iterations =  1.9

     total cpu time spent up to now is       34.7 secs

     total energy              =    -140.83059241 Ry
     estimated scf accuracy    <       0.00000010 Ry

     iteration #  3     ecut=    80.00 Ry     beta= 0.70
     Davidson diagonalization with overlap

---- Real-time Memory Report at c_bands before calling an iterative solver
          1671 MiB given to the printing process from OS
          1597 MiB allocation reported by mallinfo(arena+hblkhd)
         12918 MiB available memory on the node where the printing process lives
------------------
     ethr =  6.48E-10,  avg # of iterations =  2.0

     total cpu time spent up to now is       34.9 secs

     total energy              =    -140.83059243 Ry
     estimated scf accuracy    <       0.00000003 Ry

     iteration #  4     ecut=    80.00 Ry     beta= 0.70
     Davidson diagonalization with overlap

---- Real-time Memory Report at c_bands before calling an iterative solver
          1671 MiB given to the printing process from OS
          1598 MiB allocation reported by mallinfo(arena+hblkhd)
         12917 MiB available memory on the node where the printing process lives
------------------
     ethr =  1.95E-10,  avg # of iterations =  1.8

     total cpu time spent up to now is       35.1 secs

     End of self-consistent calculation

          k = 0.0000 0.0000 0.0000 (  1459 PWs)   bands (ev):

   -67.4553 -31.5083 -31.5083 -31.5083  -9.6461   8.6471   8.6471   8.6471
    13.8741  25.0977  25.0977  25.0977  28.9982  30.9945  30.9945  34.1443

     occupation numbers 
     1.0000   1.0000   1.0000   1.0000   1.0000   1.0000   1.0000   1.0000
     0.0000   0.0000   0.0000   0.0000   0.0000   0.0000   0.0000   0.0000

          k =-0.1667 0.1667-0.1667 (  1489 PWs)   bands (ev):

   -67.4556 -31.5317 -31.5118 -31.5118  -9.3413   7.1403   8.4733   8.4733
    15.3361  22.7393  25.7052  25.7052  29.7517  29.7517  31.8570  34.8252

     occupation numbers 
     1.0000   1.0000   1.0000   1.0000   1.0000   1.0000   1.0000   1.0000
     0.0000   0.0000   0.0000   0.0000   0.0000   0.0000   0.0000   0.0000

          k =-0.3333 0.3333-0.3333 (  1501 PWs)   bands (ev):

   -67.4492 -31.5773 -31.5148 -31.5148  -8.7003   4.8919   8.1211   8.1211
    16.8937  21.6856  26.0183  26.0183  30.4392  30.4392  31.0414  38.8936

     occupation numbers 
     1.0000   1.0000   1.0000   1.0000   1.0000   1.0000   1.0000   1.0000
     0.0000   0.0000   0.0000   0.0000   0.0000   0.0000   0.0000   0.0000

          k = 0.5000-0.5000 0.5000 (  1502 PWs)   bands (ev):

   -67.4493 -31.6000 -31.5184 -31.5184  -8.3191   3.9282   7.9660   7.9660
    17.1089  22.1011  25.7728  25.7728  30.4429  32.1100  32.1100  38.2317

     occupation numbers 
     1.0000   1.0000   1.0000   1.0000   1.0000   1.0000   1.0000   1.0000
     0.0000   0.0000   0.0000   0.0000   0.0000   0.0000   0.0000   0.0000

          k = 0.0000 0.3333 0.0000 (  1491 PWs)   bands (ev):

   -67.4556 -31.5310 -31.5168 -31.5168  -9.2505   7.0574   8.2662   8.2662
    15.8326  21.9238  26.0539  26.0539  27.1927  31.8621  34.0652  35.4472

     occupation numbers 
     1.0000   1.0000   1.0000   1.0000   1.0000   1.0000   1.0000   1.0000
     0.0000   0.0000   0.0000   0.0000   0.0000   0.0000   0.0000   0.0000

          k =-0.1667 0.5000-0.1667 (  1484 PWs)   bands (ev):

   -67.4513 -31.5636 -31.5229 -31.5214  -8.7414   5.4987   7.7894   7.9160
    17.5575  20.7718  24.7625  26.6784  27.8572  32.3327  34.5265  38.4956

     occupation numbers 
     1.0000   1.0000   1.0000   1.0000   1.0000   1.0000   1.0000   1.0000
     0.0000   0.0000   0.0000   0.0000   0.0000   0.0000   0.0000   0.0000

          k = 0.6667-0.3333 0.6667 (  1493 PWs)   bands (ev):

   -67.4492 -31.5899 -31.5310 -31.5234  -8.2696   4.3924   7.1944   7.7856
    18.2320  21.6208  23.6701  26.5014  29.5080  32.9806  33.9613  38.8668

     occupation numbers 
     1.0000   1.0000   1.0000   1.0000   1.0000   1.0000   1.0000   1.0000
     0.0000   0.0000   0.0000   0.0000   0.0000   0.0000   0.0000   0.0000

          k = 0.5000-0.1667 0.5000 (  1499 PWs)   bands (ev):

   -67.4493 -31.5831 -31.5334 -31.5184  -8.3827   4.6690   7.0848   7.9703
    18.2354  21.4764  23.9236  26.6011  30.1568  30.8298  33.9374  39.3694

     occupation numbers 
     1.0000   1.0000   1.0000   1.0000   1.0000   1.0000   1.0000   1.0000
     0.0000   0.0000   0.0000   0.0000   0.0000   0.0000   0.0000   0.0000

          k = 0.3333 0.0000 0.3333 (  1492 PWs)   bands (ev):

   -67.4535 -31.5541 -31.5256 -31.5123  -8.9307   5.9739   7.7222   8.3273
    16.9273  21.4668  25.1982  26.9899  27.7321  30.6595  34.0047  36.4368

     occupation numbers 
     1.0000   1.0000   1.0000   1.0000   1.0000   1.0000   1.0000   1.0000
     0.0000   0.0000   0.0000   0.0000   0.0000   0.0000   0.0000   0.0000

          k = 0.0000 0.6667 0.0000 (  1479 PWs)   bands (ev):

   -67.4468 -31.5673 -31.5306 -31.5306  -8.5021   5.1390   7.5630   7.5630
    18.6031  19.1904  23.3359  27.8275  27.8275  34.3059  36.8304  39.0866

     occupation numbers 
     1.0000   1.0000   1.0000   1.0000   1.0000   1.0000   1.0000   1.0000
     0.0000   0.0000   0.0000   0.0000   0.0000   0.0000   0.0000   0.0000

          k = 0.8333-0.1667 0.8333 (  1501 PWs)   bands (ev):

   -67.4472 -31.5779 -31.5446 -31.5342  -8.1701   4.8047   6.7236   7.4291
    18.9846  20.1397  22.3898  27.9527  28.1027  35.5231  36.5087  38.6184

     occupation numbers 
     1.0000   1.0000   1.0000   1.0000   1.0000   1.0000   1.0000   1.0000
     0.0000   0.0000   0.0000   0.0000   0.0000   0.0000   0.0000   0.0000

          k = 0.6667-0.0000 0.6667 (  1516 PWs)   bands (ev):

   -67.4451 -31.5675 -31.5620 -31.5261  -8.1306   5.3558   5.5333   7.6102
    19.5710  21.5784  21.9596  27.3861  28.3268  32.6478  37.3250  37.9528

     occupation numbers 
     1.0000   1.0000   1.0000   1.0000   1.0000   1.0000   1.0000   1.0000
     0.0000   0.0000   0.0000   0.0000   0.0000   0.0000   0.0000   0.0000

          k = 0.0000-1.0000 0.0000 (  1524 PWs)   bands (ev):

   -67.4474 -31.5857 -31.5393 -31.5393  -8.1072   4.5039   7.2710   7.2710
    18.2483  19.3010  22.6016  28.6915  28.6915  35.0730  36.5394  40.4534

     occupation numbers 
     1.0000   1.0000   1.0000   1.0000   1.0000   1.0000   1.0000   1.0000
     0.0000   0.0000   0.0000   0.0000   0.0000   0.0000   0.0000   0.0000

          k = 0.6667-0.3333 1.0000 (  1492 PWs)   bands (ev):

   -67.4492 -31.5737 -31.5422 -31.5266  -8.3293   5.0392   6.7763   7.6235
    19.3363  20.3040  22.9872  26.7765  28.9926  32.4737  37.5860  38.1178

     occupation numbers 
     1.0000   1.0000   1.0000   1.0000   1.0000   1.0000   1.0000   1.0000
     0.0000   0.0000   0.0000   0.0000   0.0000   0.0000   0.0000   0.0000

          k = 0.5000-0.1667 0.8333 (  1498 PWs)   bands (ev):

   -67.4472 -31.5762 -31.5514 -31.5307  -8.1169   4.9940   6.1424   7.3651
    19.8522  21.3122  22.1525  26.0459  30.3026  31.6258  37.5371  38.1413

     occupation numbers 
     1.0000   1.0000   1.0000   1.0000   1.0000   1.0000   1.0000   1.0000
     0.0000   0.0000   0.0000   0.0000   0.0000   0.0000   0.0000   0.0000

          k =-0.3333-1.0000 0.0000 (  1510 PWs)   bands (ev):

   -67.4473 -31.5737 -31.5511 -31.5412  -8.0577   5.0352   6.3846   6.9458
    19.7655  20.8011  21.8890  26.0694  29.8576  34.2390  35.9577  38.2083

     occupation numbers 
     1.0000   1.0000   1.0000   1.0000   1.0000   1.0000   1.0000   1.0000
     0.0000   0.0000   0.0000   0.0000   0.0000   0.0000   0.0000   0.0000

     highest occupied, lowest unoccupied level (ev):     8.6471   13.8741

!    total energy              =    -140.83059244 Ry
     estimated scf accuracy    <          9.4E-12 Ry

     convergence has been achieved in   4 iterations

     Using ACE for calculation of exact exchange
     ACE projected onto    16 (nbndproj) and applied to    16 (nbnd) bands

     total energy              =    -140.83059255 Ry
     Harris-Foulkes estimate   =    -140.83059255 Ry
     est. exchange err (dexx)  =       0.00000011 Ry
     - averaged Fock potential =       6.64457844 Ry
     + Fock energy (ACE)       =      -3.32236862 Ry

     EXX: now go back to refine exchange calculation

     total cpu time spent up to now is       50.3 secs

     per-process dynamical memory:  1632.2 Mb

     Self-consistent Calculation

     iteration #  1     ecut=    80.00 Ry     beta= 0.70
     Davidson diagonalization with overlap

---- Real-time Memory Report at c_bands before calling an iterative solver
          1671 MiB given to the printing process from OS
          1593 MiB allocation reported by mallinfo(arena+hblkhd)
         12922 MiB available memory on the node where the printing process lives
------------------
     ethr =  1.95E-10,  avg # of iterations =  2.1

     Threshold (ethr) on eigenvalues was too large:
     Diagonalizing with lowered threshold

     Davidson diagonalization with overlap

---- Real-time Memory Report at c_bands before calling an iterative solver
          1671 MiB given to the printing process from OS
          1596 MiB allocation reported by mallinfo(arena+hblkhd)
         12921 MiB available memory on the node where the printing process lives
------------------
     ethr =  1.34E-11,  avg # of iterations =  1.1

     total cpu time spent up to now is       50.7 secs

     End of self-consistent calculation

          k = 0.0000 0.0000 0.0000 (  1459 PWs)   bands (ev):

   -67.4553 -31.5084 -31.5084 -31.5084  -9.6465   8.6469   8.6469   8.6469
    13.8743  25.0978  25.0978  25.0978  28.9985  30.9945  30.9945  34.1444

     occupation numbers 
     1.0000   1.0000   1.0000   1.0000   1.0000   1.0000   1.0000   1.0000
     0.0000   0.0000   0.0000   0.0000   0.0000   0.0000   0.0000   0.0000

          k =-0.1667 0.1667-0.1667 (  1489 PWs)   bands (ev):

   -67.4557 -31.5318 -31.5119 -31.5119  -9.3416   7.1403   8.4732   8.4732
    15.3364  22.7395  25.7053  25.7053  29.7518  29.7518  31.8572  34.8254

     occupation numbers 
     1.0000   1.0000   1.0000   1.0000   1.0000   1.0000   1.0000   1.0000
     0.0000   0.0000   0.0000   0.0000   0.0000   0.0000   0.0000   0.0000

          k =-0.3333 0.3333-0.3333 (  1501 PWs)   bands (ev):

   -67.4492 -31.5774 -31.5150 -31.5150  -8.7007   4.8918   8.1209   8.1209
    16.8939  21.6858  26.0184  26.0184  30.4393  30.4393  31.0416  38.8938

     occupation numbers 
     1.0000   1.0000   1.0000   1.0000   1.0000   1.0000   1.0000   1.0000
     0.0000   0.0000   0.0000   0.0000   0.0000   0.0000   0.0000   0.0000

          k = 0.5000-0.5000 0.5000 (  1502 PWs)   bands (ev):

   -67.4494 -31.6001 -31.5186 -31.5186  -8.3194   3.9282   7.9659   7.9659
    17.1090  22.1014  25.7729  25.7729  30.4431  32.1102  32.1102  38.2318

     occupation numbers 
     1.0000   1.0000   1.0000   1.0000   1.0000   1.0000   1.0000   1.0000
     0.0000   0.0000   0.0000   0.0000   0.0000   0.0000   0.0000   0.0000

          k = 0.0000 0.3333 0.0000 (  1491 PWs)   bands (ev):

   -67.4557 -31.5312 -31.5169 -31.5169  -9.2507   7.0574   8.2661   8.2661
    15.8328  21.9239  26.0540  26.0540  27.1928  31.8621  34.0654  35.4473

     occupation numbers 
     1.0000   1.0000   1.0000   1.0000   1.0000   1.0000   1.0000   1.0000
     0.0000   0.0000   0.0000   0.0000   0.0000   0.0000   0.0000   0.0000

          k =-0.1667 0.5000-0.1667 (  1484 PWs)   bands (ev):

   -67.4514 -31.5638 -31.5230 -31.5215  -8.7417   5.4987   7.7893   7.9158
    17.5578  20.7720  24.7627  26.6785  27.8573  32.3328  34.5267  38.4958

     occupation numbers 
     1.0000   1.0000   1.0000   1.0000   1.0000   1.0000   1.0000   1.0000
     0.0000   0.0000   0.0000   0.0000   0.0000   0.0000   0.0000   0.0000

          k = 0.6667-0.3333 0.6667 (  1493 PWs)   bands (ev):

   -67.4493 -31.5901 -31.5311 -31.5236  -8.2699   4.3924   7.1943   7.7855
    18.2322  21.6211  23.6702  26.5015  29.5082  32.9808  33.9615  38.8667

     occupation numbers 
     1.0000   1.0000   1.0000   1.0000   1.0000   1.0000   1.0000   1.0000
     0.0000   0.0000   0.0000   0.0000   0.0000   0.0000   0.0000   0.0000

          k = 0.5000-0.1667 0.5000 (  1499 PWs)   bands (ev):

   -67.4494 -31.5832 -31.5336 -31.5186  -8.3830   4.6690   7.0847   7.9702
    18.2356  21.4767  23.9237  26.6011  30.1569  30.8300  33.9376  39.3694

     occupation numbers 
     1.0000   1.0000   1.0000   1.0000   1.0000   1.0000   1.0000   1.0000
     0.0000   0.0000   0.0000   0.0000   0.0000   0.0000   0.0000   0.0000

          k = 0.3333 0.0000 0.3333 (  1492 PWs)   bands (ev):

   -67.4536 -31.5542 -31.5257 -31.5124  -8.9309   5.9739   7.7221   8.3272
    16.9275  21.4670  25.1983  26.9900  27.7321  30.6596  34.0049  36.4369

     occupation numbers 
     1.0000   1.0000   1.0000   1.0000   1.0000   1.0000   1.0000   1.0000
     0.0000   0.0000   0.0000   0.0000   0.0000   0.0000   0.0000   0.0000

          k = 0.0000 0.6667 0.0000 (  1479 PWs)   bands (ev):

   -67.4469 -31.5674 -31.5308 -31.5308  -8.5025   5.1389   7.5628   7.5628
    18.6033  19.1906  23.3360  27.8277  27.8277  34.3059  36.8305  39.0868

     occupation numbers 
     1.0000   1.0000   1.0000   1.0000   1.0000   1.0000   1.0000   1.0000
     0.0000   0.0000   0.0000   0.0000   0.0000   0.0000   0.0000   0.0000

          k = 0.8333-0.1667 0.8333 (  1501 PWs)   bands (ev):

   -67.4473 -31.5781 -31.5447 -31.5343  -8.1704   4.8047   6.7235   7.4290
    18.9848  20.1399  22.3900  27.9529  28.1029  35.5232  36.5088  38.6184

     occupation numbers 
     1.0000   1.0000   1.0000   1.0000   1.0000   1.0000   1.0000   1.0000
     0.0000   0.0000   0.0000   0.0000   0.0000   0.0000   0.0000   0.0000

          k = 0.6667-0.0000 0.6667 (  1516 PWs)   bands (ev):

   -67.4451 -31.5676 -31.5621 -31.5262  -8.1311   5.3557   5.5332   7.6100
    19.5712  21.5786  21.9598  27.3862  28.3269  32.6479  37.3252  37.9529

     occupation numbers 
     1.0000   1.0000   1.0000   1.0000   1.0000   1.0000   1.0000   1.0000
     0.0000   0.0000   0.0000   0.0000   0.0000   0.0000   0.0000   0.0000

          k = 0.0000-1.0000 0.0000 (  1524 PWs)   bands (ev):

   -67.4475 -31.5858 -31.5395 -31.5395  -8.1075   4.5039   7.2710   7.2710
    18.2485  19.3012  22.6019  28.6918  28.6918  35.0732  36.5393  40.4535

     occupation numbers 
     1.0000   1.0000   1.0000   1.0000   1.0000   1.0000   1.0000   1.0000
     0.0000   0.0000   0.0000   0.0000   0.0000   0.0000   0.0000   0.0000

          k = 0.6667-0.3333 1.0000 (  1492 PWs)   bands (ev):

   -67.4493 -31.5739 -31.5423 -31.5268  -8.3296   5.0392   6.7762   7.6234
    19.3366  20.3042  22.9873  26.7766  28.9928  32.4739  37.5861  38.1168

     occupation numbers 
     1.0000   1.0000   1.0000   1.0000   1.0000   1.0000   1.0000   1.0000
     0.0000   0.0000   0.0000   0.0000   0.0000   0.0000   0.0000   0.0000

          k = 0.5000-0.1667 0.8333 (  1498 PWs)   bands (ev):

   -67.4472 -31.5764 -31.5516 -31.5309  -8.1172   4.9939   6.1423   7.3650
    19.8524  21.3124  22.1527  26.0461  30.3028  31.6259  37.5372  38.1411

     occupation numbers 
     1.0000   1.0000   1.0000   1.0000   1.0000   1.0000   1.0000   1.0000
     0.0000   0.0000   0.0000   0.0000   0.0000   0.0000   0.0000   0.0000

          k =-0.3333-1.0000 0.0000 (  1510 PWs)   bands (ev):

   -67.4474 -31.5738 -31.5512 -31.5414  -8.0579   5.0352   6.3845   6.9458
    19.7657  20.8013  21.8893  26.0695  29.8578  34.2391  35.9577  38.2084

     occupation numbers 
     1.0000   1.0000   1.0000   1.0000   1.0000   1.0000   1.0000   1.0000
     0.0000   0.0000   0.0000   0.0000   0.0000   0.0000   0.0000   0.0000

     highest occupied, lowest unoccupied level (ev):     8.6469   13.8743

!    total energy              =    -140.83059255 Ry
     estimated scf accuracy    <          2.3E-09 Ry

     convergence has been achieved in   1 iterations

     Using ACE for calculation of exact exchange
     ACE projected onto    16 (nbndproj) and applied to    16 (nbnd) bands

!!   total energy              =    -140.83059255 Ry
     Harris-Foulkes estimate   =    -140.83059256 Ry
     est. exchange err (dexx)  =          5.3E-10 Ry
     - averaged Fock potential =       6.64473504 Ry
     + Fock energy (ACE)       =      -3.32236642 Ry

     EXX self-consistency reached

     Writing all to output data dir ./out/mgo.save/ :
     XML data file, charge density, pseudopotentials, collected wavefunctions

     init_run     :      1.38s CPU      0.45s WALL (       1 calls)
     electrons    :     28.88s CPU      4.14s WALL (       4 calls)

     Called by init_run:
     aceinit0     :      0.00s CPU      0.00s WALL (       1 calls)
     wfcinit      :      0.96s CPU      0.21s WALL (       1 calls)
     wfcinit:wfcr :      0.87s CPU      0.19s WALL (      16 calls)
     potinit      :      0.06s CPU      0.02s WALL (       1 calls)
     hinit0       :      0.36s CPU      0.22s WALL (       1 calls)

     Called by electrons:
     c_bands      :     23.98s CPU      3.44s WALL (      18 calls)
     sum_band     :      4.17s CPU      0.60s WALL (      18 calls)
     v_of_rho     :      0.69s CPU      0.09s WALL (      19 calls)
     v_h          :      0.03s CPU      0.00s WALL (      19 calls)
     v_xc         :      0.66s CPU      0.09s WALL (      19 calls)
     mix_rho      :      0.03s CPU      0.01s WALL (      18 calls)

     Called by c_bands:
     init_us_2    :      0.58s CPU      0.10s WALL (     592 calls)
     cegterg      :     23.09s CPU      3.32s WALL (     288 calls)

     Called by sum_band:
     sum_band:wei :      0.00s CPU      0.00s WALL (      18 calls)
     sum_band:loo :      4.13s CPU      0.59s WALL (      18 calls)
     sum_band:buf :      0.05s CPU      0.01s WALL (     288 calls)
     sum_band:ini :      0.21s CPU      0.05s WALL (     288 calls)

     Called by *egterg:
     cdiaghg      :      1.25s CPU      0.16s WALL (     982 calls)
     cegterg:over :      0.62s CPU      0.10s WALL (     758 calls)
     cegterg:upda :      0.47s CPU      0.05s WALL (     758 calls)
     cegterg:last :      0.52s CPU      0.07s WALL (     633 calls)
     h_psi        :     20.35s CPU      3.00s WALL (    1062 calls)
     g_psi        :      0.21s CPU      0.05s WALL (     758 calls)

     Called by h_psi:
     h_psi:calbec :      0.32s CPU      0.08s WALL (    1062 calls)
     vloc_psi     :     19.15s CPU      2.79s WALL (    1062 calls)
                                        0.00s GPU  (    1062 calls)
     add_vuspsi   :      0.28s CPU      0.04s WALL (    1062 calls)

     General routines
     calbec       :      0.71s CPU      0.15s WALL (    1931 calls)
     fft          :      0.36s CPU      0.15s WALL (     185 calls)
     ffts         :      0.00s CPU      0.00s WALL (      18 calls)
     fftw         :     18.19s CPU      2.56s WALL (   29194 calls)
     fftc         :    170.94s CPU     39.37s WALL (  884736 calls)
     fftcw        :      1.12s CPU      0.25s WALL (    3072 calls)

     Parallel routines

     EXX routines
     exx_grid     :      0.00s CPU      0.00s WALL (       1 calls)
     exxinit      :      8.11s CPU      1.95s WALL (       4 calls)
     vexx         :    256.05s CPU     59.44s WALL (      64 calls)
     matcalc      :      0.39s CPU      0.08s WALL (     869 calls)
     aceupdate    :      0.04s CPU      0.01s WALL (      64 calls)
     vexxace      :      0.64s CPU      0.10s WALL (     693 calls)
     aceinit      :    256.14s CPU     59.47s WALL (      64 calls)

     PWSCF        :   4m55.23s CPU   1m 6.16s WALL


   This run was terminated on:  16:44:24  15Jun2026            

=------------------------------------------------------------------------------=
   JOB DONE.
=------------------------------------------------------------------------------=
