
     Program PWSCF v.7.5 starts on 25Jun2026 at  8:10: 8 

     This program is part of the open-source Quantum ESPRESSO suite
     for quantum simulation of materials; please cite
         "P. Giannozzi et al., J. Phys.:Condens. Matter 21 395502 (2009);
         "P. Giannozzi et al., J. Phys.:Condens. Matter 29 465901 (2017);
         "P. Giannozzi et al., J. Chem. Phys. 152 154105 (2020);
          URL http://www.quantum-espresso.org", 
     in publications or presentations arising from this work. More details at
     http://www.quantum-espresso.org/quote

     Parallel version (MPI & OpenMP), running on       4 processor cores
     Number of MPI processes:                 4
     Threads/MPI process:                     1

     MPI processes distributed on     1 nodes
     13744 MiB available memory on the printing compute node when the environment starts

     Reading input from alas.fg.in

     Current dimensions of program PWSCF are:
     Max number of different atomic species (ntypx) = 10
     Max number of k-points (npk) =  40000
     Max angular momentum in pseudopotentials (lmaxx) =  4

     IMPORTANT: XC functional enforced from input :
     Exchange-correlation= HSE
                           (   1   4  12   4   0   0   0)
     EXX-fraction              =        0.25
     Any further DFT definition will be discarded
     Please, verify this is what you really want

     EXX Screening parameter changed:    0.6054000
     EXX fraction changed:   1.00
     DD-RSH-CAM (LMODELHF) semilocal: AEXX, BEXX =   0.1246  0.3182
     DD-RSH-CAM (LMODELHF) enabled
     AEXX =  0.1246   BEXX =  0.3182   mu(bohr^-1) =  0.6054

     R & G space division:  proc/nbgrp/npool/nimage =       4
     Subspace diagonalization in iterative solution of the eigenvalue problem:
     a serial algorithm will be used

     EXX: q-point mesh:     6    6    6
     EXX: setup a grid of 216 q-points centered on each k-point
     (k+q)-points:
   0.0000000   0.0000000   0.0000000         1    1
  -0.1666667   0.1666667  -0.1666667         2    1
  -0.3333333   0.3333333  -0.3333333         3    1
   0.5000000  -0.5000000   0.5000000         4    1
   0.3333333  -0.3333333   0.3333333         3   -1
   0.1666667  -0.1666667   0.1666667         2   -1
   0.1666667   0.1666667   0.1666667         2    3
   0.0000000   0.3333333   0.0000000         5    1
  -0.1666667   0.5000000  -0.1666667         6    1
   0.6666667  -0.3333333   0.6666667         7    1
   0.5000000  -0.1666667   0.5000000         8    1
   0.3333333   0.0000000   0.3333333         9    1
   0.3333333   0.3333333   0.3333333         3    3
   0.1666667   0.5000000   0.1666667         6    3
   0.0000000   0.6666667   0.0000000        10    1
   0.8333333  -0.1666667   0.8333333        11    1
   0.6666667   0.0000000   0.6666667        12    1
   0.5000000   0.1666667   0.5000000         8   -3
  -0.5000000  -0.5000000  -0.5000000         4    3
  -0.6666667  -0.3333333  -0.6666667         7    3
  -0.8333333  -0.1666667  -0.8333333        11    3
   0.0000000  -1.0000000   0.0000000        13    1
   0.8333333   0.1666667   0.8333333        11   -3
   0.6666667   0.3333333   0.6666667         7   -3
  -0.3333333  -0.3333333  -0.3333333         3   -3
  -0.5000000  -0.1666667  -0.5000000         8    3
  -0.6666667   0.0000000  -0.6666667        12   -1
  -0.8333333   0.1666667  -0.8333333        11   -1
   0.0000000  -0.6666667   0.0000000        10   -1
  -0.1666667  -0.5000000  -0.1666667         6   -3
  -0.1666667  -0.1666667  -0.1666667         2   -3
  -0.3333333   0.0000000  -0.3333333         9   -1
  -0.5000000   0.1666667  -0.5000000         8   -1
  -0.6666667   0.3333333  -0.6666667         7   -1
   0.1666667  -0.5000000   0.1666667         6   -1
   0.0000000  -0.3333333   0.0000000         5   -1
  -0.1666667  -0.1666667   0.1666667         2    4
  -0.3333333   0.0000000   0.0000000         5   -9
  -0.5000000   0.1666667  -0.1666667         6   10
   0.3333333  -0.6666667   0.6666667         7   10
   0.1666667  -0.5000000   0.5000000         8   10
   0.0000000  -0.3333333   0.3333333         9   10
   0.0000000   0.0000000   0.3333333         5    5
  -0.1666667   0.1666667   0.1666667         2   -2
  -0.3333333   0.3333333   0.0000000         9    7
  -0.5000000   0.5000000  -0.1666667         8   -8
  -0.6666667   0.6666667  -0.3333333         7   -8
   0.1666667  -0.1666667   0.5000000         6   -8
   0.1666667   0.1666667   0.5000000         6    6
   0.0000000   0.3333333   0.3333333         9    9
  -0.1666667   0.5000000   0.1666667         6   -2
   0.6666667  -0.3333333   1.0000000        14    1
   0.5000000  -0.1666667   0.8333333        15    1
  -0.6666667   1.0000000  -0.3333333        14  -21
  -0.6666667  -0.6666667  -0.3333333         7    6
   0.1666667   0.5000000   0.5000000         8  -12
  -1.0000000  -0.3333333  -0.6666667        14   17
   0.8333333  -0.1666667  -0.8333333        11   -2
  -0.3333333  -1.0000000   0.0000000        16    1
   0.5000000   0.1666667   0.8333333        15   -3
  -0.5000000  -0.5000000  -0.1666667         8    6
   0.3333333   0.6666667   0.6666667         7  -12
   0.1666667   0.8333333   0.5000000        15  -12
   0.0000000  -1.0000000   0.3333333        16   17
   0.8333333   0.1666667  -0.8333333        11    4
   0.6666667   0.3333333   1.0000000        14   -3
  -0.3333333  -0.3333333   0.0000000         9   -5
  -0.5000000  -0.1666667  -0.1666667         6  -12
   0.3333333  -1.0000000   0.6666667        14   10
   0.1666667  -0.8333333   0.5000000        15   10
  -1.0000000   0.3333333  -0.6666667        14  -18
  -0.1666667  -0.5000000   0.1666667         6    4
  -0.3333333  -0.3333333   0.3333333         3    4
  -0.5000000  -0.1666667   0.1666667         6   11
  -0.6666667   0.0000000   0.0000000        10   -9
   0.1666667  -0.8333333   0.8333333        11   10
   0.0000000  -0.6666667   0.6666667        12   10
  -0.1666667  -0.5000000   0.5000000         8  -11
  -0.1666667  -0.1666667   0.5000000         6    5
  -0.3333333   0.0000000   0.3333333         9    2
  -0.5000000   0.1666667   0.1666667         6   -9
   0.3333333  -0.6666667   1.0000000        14   13
  -0.8333333   0.5000000  -0.1666667        15   -8
   1.0000000   0.6666667  -0.3333333        14    5
   0.0000000   0.0000000   0.6666667        10    5
  -0.1666667   0.1666667   0.5000000         6   -7
  -0.3333333   0.3333333   0.3333333         3   -2
  -0.5000000   0.5000000   0.1666667         8    7
  -0.6666667   0.6666667   0.0000000        12    7
  -0.8333333   0.8333333  -0.1666667        11   -8
  -0.8333333  -0.8333333  -0.1666667        11    6
  -1.0000000  -0.6666667  -0.3333333        14    6
  -0.1666667   0.5000000   0.5000000         8    9
   0.6666667  -0.3333333  -0.6666667         7   -2
   0.5000000  -0.1666667  -0.8333333        15   -2
   0.3333333   0.0000000  -1.0000000        16  -21
  -0.6666667  -0.6666667   0.0000000        12   -5
  -0.8333333  -0.5000000  -0.1666667        15    6
   0.0000000   0.6666667   0.6666667        12    9
  -0.1666667   0.8333333   0.5000000        15    9
   0.6666667   0.0000000  -0.6666667        12   -2
   0.5000000   0.1666667  -0.8333333        15    4
  -0.5000000  -0.5000000   0.1666667         8   -5
   0.3333333   0.6666667   1.0000000        14  -15
   0.1666667   0.8333333   0.8333333        11  -12
  -1.0000000   0.0000000  -0.3333333        16    9
  -0.1666667  -0.8333333   0.5000000        15  -11
   0.6666667   0.3333333  -0.6666667         7    4
   0.5000000   0.5000000  -0.5000000         4    4
   0.3333333   0.6666667  -0.6666667         7   11
   0.1666667   0.8333333  -0.8333333        11   11
  -1.0000000   0.0000000   0.0000000        13    9
  -0.1666667  -0.8333333   0.8333333        11  -11
  -0.3333333  -0.6666667   0.6666667         7  -11
   0.6666667   0.6666667  -0.3333333         7    5
  -0.5000000  -0.1666667   0.5000000         8   -4
   0.3333333  -1.0000000  -0.6666667        14   -9
   0.1666667  -0.8333333  -0.8333333        11   -9
   1.0000000   0.3333333   0.0000000        16   13
   0.8333333   0.5000000  -0.1666667        15    5
   0.8333333   0.8333333  -0.1666667        11    5
   0.6666667   1.0000000  -0.3333333        14   22
  -0.5000000   0.1666667   0.5000000         8    2
   0.3333333  -0.6666667  -0.6666667         7   -9
  -0.8333333   0.5000000   0.1666667        15    7
   0.0000000  -0.3333333  -1.0000000        16    5
   0.0000000   0.0000000  -1.0000000        13    5
   0.8333333  -0.8333333  -0.1666667        11   -7
   0.6666667  -0.6666667  -0.3333333         7   -7
  -0.5000000   0.5000000   0.5000000         4    2
  -0.6666667   0.6666667   0.3333333         7    7
  -0.8333333   0.8333333   0.1666667        11    7
  -0.8333333  -0.8333333   0.1666667        11   -5
   0.0000000   0.3333333   1.0000000        16   -5
   0.8333333  -0.5000000  -0.1666667        15   -7
  -0.3333333   0.6666667   0.6666667         7    9
   0.5000000  -0.1666667  -0.5000000         8   -2
  -0.6666667  -1.0000000   0.3333333        14  -22
  -0.6666667  -0.6666667   0.3333333         7   -5
  -0.8333333  -0.5000000   0.1666667        15   -5
  -1.0000000  -0.3333333   0.0000000        16  -13
  -0.1666667   0.8333333   0.8333333        11    9
  -0.3333333   1.0000000   0.6666667        14    9
   0.5000000   0.1666667  -0.5000000         8    4
   0.3333333   0.3333333  -0.3333333         3   -4
   0.1666667   0.5000000  -0.5000000         8   11
   0.0000000   0.6666667  -0.6666667        12  -10
  -0.1666667   0.8333333  -0.8333333        11  -10
   0.6666667   0.0000000   0.0000000        10    9
   0.5000000   0.1666667  -0.1666667         6  -11
   0.5000000   0.5000000  -0.1666667         8    5
  -0.6666667  -0.3333333   0.6666667         7   -4
   0.1666667   0.8333333  -0.5000000        15   11
   1.0000000   0.0000000   0.3333333        16   -9
  -0.1666667  -0.8333333  -0.8333333        11   12
  -0.3333333  -0.6666667  -1.0000000        14   15
   0.6666667   0.6666667   0.0000000        12    5
  -0.5000000  -0.1666667   0.8333333        15   -4
  -0.6666667   0.0000000   0.6666667        12    2
   0.1666667  -0.8333333  -0.5000000        15   -9
   0.0000000  -0.6666667  -0.6666667        12   -9
   0.8333333   0.5000000   0.1666667        15   -6
   0.8333333   0.8333333   0.1666667        11   -6
  -0.3333333   0.0000000   1.0000000        16   21
  -0.5000000   0.1666667   0.8333333        15    2
  -0.6666667   0.3333333   0.6666667         7    2
   0.1666667  -0.5000000  -0.5000000         8   -9
   1.0000000   0.6666667   0.3333333        14   -6
   0.0000000   0.0000000  -0.6666667        10   -5
   0.8333333  -0.8333333   0.1666667        11    8
   0.6666667  -0.6666667   0.0000000        12   -7
   0.5000000  -0.5000000  -0.1666667         8   -7
   0.3333333  -0.3333333  -0.3333333         3    2
   0.1666667  -0.1666667  -0.5000000         6    7
   0.1666667   0.1666667  -0.5000000         6   -5
  -1.0000000  -0.6666667   0.3333333        14   -5
   0.8333333  -0.5000000   0.1666667        15    8
  -0.3333333   0.6666667  -1.0000000        14  -13
   0.5000000  -0.1666667  -0.1666667         6    9
   0.3333333   0.0000000  -0.3333333         9   -2
   0.1666667   0.1666667  -0.1666667         2   -4
   0.0000000   0.3333333  -0.3333333         9  -10
  -0.1666667   0.5000000  -0.5000000         8  -10
  -0.3333333   0.6666667  -0.6666667         7  -10
   0.5000000  -0.1666667   0.1666667         6  -10
   0.3333333   0.0000000   0.0000000         5    9
   0.3333333   0.3333333   0.0000000         9    5
   0.1666667   0.5000000  -0.1666667         6   -4
   1.0000000  -0.3333333   0.6666667        14   18
  -0.1666667   0.8333333  -0.5000000        15  -10
  -0.3333333   1.0000000  -0.6666667        14  -10
   0.5000000   0.1666667   0.1666667         6   12
   0.5000000   0.5000000   0.1666667         8   -6
  -0.6666667  -0.3333333  -1.0000000        14    3
  -0.8333333  -0.1666667   0.8333333        11   -4
   0.0000000   1.0000000  -0.3333333        16  -17
  -0.1666667  -0.8333333  -0.5000000        15   12
  -0.3333333  -0.6666667  -0.6666667         7   12
   0.6666667   0.6666667   0.3333333         7   -6
  -0.5000000  -0.1666667  -0.8333333        15    3
   0.3333333   1.0000000   0.0000000        16   -1
  -0.8333333   0.1666667   0.8333333        11    2
   1.0000000   0.3333333   0.6666667        14  -17
  -0.1666667  -0.5000000  -0.5000000         8   12
  -0.1666667  -0.1666667  -0.5000000         6   -6
   0.6666667  -1.0000000   0.3333333        14   21
  -0.5000000   0.1666667  -0.8333333        15   -1
  -0.6666667   0.3333333  -1.0000000        14   -1
   0.1666667  -0.5000000  -0.1666667         6    2
   0.0000000  -0.3333333  -0.3333333         9   -9
   0.0000000   0.0000000  -0.3333333         5   -5
  -0.1666667   0.1666667  -0.5000000         6    8
   0.6666667  -0.6666667   0.3333333         7    8
   0.5000000  -0.5000000   0.1666667         8    8
   0.3333333  -0.3333333   0.0000000         9   -7
   0.1666667  -0.1666667  -0.1666667         2    2

     Parallelization info
     --------------------
     sticks:   dense  smooth     PW     G-vecs:    dense   smooth      PW
     Min         238     238     70                 4798     4798     784
     Max         239     239     71                 4799     4799     787
     Sum         955     955    283                19195    19195    3143

     Using Slab Decomposition



     bravais-lattice index     =            2
     lattice parameter (alat)  =      10.6960  a.u.
     unit-cell volume          =     305.9174 (a.u.)^3
     number of atoms/cell      =            2
     number of atomic types    =            2
     number of electrons       =        16.00
     number of Kohn-Sham states=           16
     kinetic-energy cutoff     =      60.0000  Ry
     charge density cutoff     =     240.0000  Ry
     cutoff for Fock operator  =     240.0000  Ry
     scf convergence threshold =      1.0E-08
     mixing beta               =       0.7000
     number of iterations used =            8  plain     mixing
     Exchange-correlation= HSE
                           (   1   4  12   4   0   0   0)
     EXX-fraction              =        1.00

     celldm(1)=  10.696000  celldm(2)=   0.000000  celldm(3)=   0.000000
     celldm(4)=   0.000000  celldm(5)=   0.000000  celldm(6)=   0.000000

     crystal axes: (cart. coord. in units of alat)
               a(1) = (  -0.500000   0.000000   0.500000 )  
               a(2) = (   0.000000   0.500000   0.500000 )  
               a(3) = (  -0.500000   0.500000   0.000000 )  

     reciprocal axes: (cart. coord. in units 2 pi/alat)
               b(1) = ( -1.000000 -1.000000  1.000000 )  
               b(2) = (  1.000000  1.000000  1.000000 )  
               b(3) = ( -1.000000  1.000000 -1.000000 )  


     PseudoPot. # 1 for Al read from file:
     ../../../../pseudos/Al_ONCV_PBE-1.2.upf
     MD5 check sum: 2d9e7bc02555220d62fad08c3c4858e7
     Pseudo is Norm-conserving, Zval = 11.0
     Generated using ONCVPSP code by D. R. Hamann
     Using radial grid of  602 points,  4 beta functions with: 
                l(1) =   0
                l(2) =   0
                l(3) =   1
                l(4) =   1

     PseudoPot. # 2 for As read from file:
     ../../../../pseudos/As_ONCV_PBE-1.2.upf
     MD5 check sum: a2ff92a4799c87c945fff9e6739df4dd
     Pseudo is Norm-conserving, Zval =  5.0
     Generated using ONCVPSP code by D. R. Hamann
     Using radial grid of  602 points,  6 beta functions with: 
                l(1) =   0
                l(2) =   0
                l(3) =   1
                l(4) =   1
                l(5) =   2
                l(6) =   2

     atomic species   valence    mass     pseudopotential
     Al               11.00    26.98200     Al( 1.00)
     As                5.00    74.92200     As( 1.00)

     24 Sym. Ops. (no inversion) found


                                    s                        frac. trans.

      isym =  1     identity                                     

 cryst.   s( 1) = (     1          0          0      )
                  (     0          1          0      )
                  (     0          0          1      )

 cart.    s( 1) = (  1.0000000  0.0000000  0.0000000 )
                  (  0.0000000  1.0000000  0.0000000 )
                  (  0.0000000  0.0000000  1.0000000 )


      isym =  2     180 deg rotation - cart. axis [0,0,1]        

 cryst.   s( 2) = (     0          1         -1      )
                  (     1          0         -1      )
                  (     0          0         -1      )

 cart.    s( 2) = ( -1.0000000  0.0000000  0.0000000 )
                  (  0.0000000 -1.0000000  0.0000000 )
                  (  0.0000000  0.0000000  1.0000000 )


      isym =  3     180 deg rotation - cart. axis [0,1,0]        

 cryst.   s( 3) = (    -1          0          0      )
                  (    -1          0          1      )
                  (    -1          1          0      )

 cart.    s( 3) = ( -1.0000000  0.0000000  0.0000000 )
                  (  0.0000000  1.0000000  0.0000000 )
                  (  0.0000000  0.0000000 -1.0000000 )


      isym =  4     180 deg rotation - cart. axis [1,0,0]        

 cryst.   s( 4) = (     0         -1          1      )
                  (     0         -1          0      )
                  (     1         -1          0      )

 cart.    s( 4) = (  1.0000000  0.0000000  0.0000000 )
                  (  0.0000000 -1.0000000  0.0000000 )
                  (  0.0000000  0.0000000 -1.0000000 )


      isym =  5     120 deg rotation - cart. axis [-1,-1,-1]     

 cryst.   s( 5) = (    -1          0          1      )
                  (    -1          1          0      )
                  (    -1          0          0      )

 cart.    s( 5) = (  0.0000000  1.0000000  0.0000000 )
                  (  0.0000000  0.0000000  1.0000000 )
                  (  1.0000000  0.0000000  0.0000000 )


      isym =  6     120 deg rotation - cart. axis [-1,1,1]       

 cryst.   s( 6) = (     0          1          0      )
                  (     0          0          1      )
                  (     1          0          0      )

 cart.    s( 6) = (  0.0000000 -1.0000000  0.0000000 )
                  (  0.0000000  0.0000000  1.0000000 )
                  ( -1.0000000  0.0000000  0.0000000 )


      isym =  7     120 deg rotation - cart. axis [1,1,-1]       

 cryst.   s( 7) = (     1          0         -1      )
                  (     0          0         -1      )
                  (     0          1         -1      )

 cart.    s( 7) = (  0.0000000  1.0000000  0.0000000 )
                  (  0.0000000  0.0000000 -1.0000000 )
                  ( -1.0000000  0.0000000  0.0000000 )


      isym =  8     120 deg rotation - cart. axis [1,-1,1]       

 cryst.   s( 8) = (     0         -1          0      )
                  (     1         -1          0      )
                  (     0         -1          1      )

 cart.    s( 8) = (  0.0000000 -1.0000000  0.0000000 )
                  (  0.0000000  0.0000000 -1.0000000 )
                  (  1.0000000  0.0000000  0.0000000 )


      isym =  9     120 deg rotation - cart. axis [1,1,1]        

 cryst.   s( 9) = (     0          0         -1      )
                  (     0          1         -1      )
                  (     1          0         -1      )

 cart.    s( 9) = (  0.0000000  0.0000000  1.0000000 )
                  (  1.0000000  0.0000000  0.0000000 )
                  (  0.0000000  1.0000000  0.0000000 )


      isym = 10     120 deg rotation - cart. axis [-1,1,-1]      

 cryst.   s(10) = (    -1          1          0      )
                  (    -1          0          0      )
                  (    -1          0          1      )

 cart.    s(10) = (  0.0000000  0.0000000  1.0000000 )
                  ( -1.0000000  0.0000000  0.0000000 )
                  (  0.0000000 -1.0000000  0.0000000 )


      isym = 11     120 deg rotation - cart. axis [1,-1,-1]      

 cryst.   s(11) = (     0          0          1      )
                  (     1          0          0      )
                  (     0          1          0      )

 cart.    s(11) = (  0.0000000  0.0000000 -1.0000000 )
                  ( -1.0000000  0.0000000  0.0000000 )
                  (  0.0000000  1.0000000  0.0000000 )


      isym = 12     120 deg rotation - cart. axis [-1,-1,1]      

 cryst.   s(12) = (     1         -1          0      )
                  (     0         -1          1      )
                  (     0         -1          0      )

 cart.    s(12) = (  0.0000000  0.0000000 -1.0000000 )
                  (  1.0000000  0.0000000  0.0000000 )
                  (  0.0000000 -1.0000000  0.0000000 )


      isym = 13     inv. 180 deg rotation - cart. axis [1,1,0]   

 cryst.   s(13) = (     0          1          0      )
                  (     1          0          0      )
                  (     0          0          1      )

 cart.    s(13) = (  0.0000000 -1.0000000  0.0000000 )
                  ( -1.0000000  0.0000000  0.0000000 )
                  (  0.0000000  0.0000000  1.0000000 )


      isym = 14     inv. 180 deg rotation - cart. axis [1,-1,0]  

 cryst.   s(14) = (     1          0         -1      )
                  (     0          1         -1      )
                  (     0          0         -1      )

 cart.    s(14) = (  0.0000000  1.0000000  0.0000000 )
                  (  1.0000000  0.0000000  0.0000000 )
                  (  0.0000000  0.0000000  1.0000000 )


      isym = 15     inv.  90 deg rotation - cart. axis [0,0,-1]  

 cryst.   s(15) = (     0         -1          0      )
                  (     0         -1          1      )
                  (     1         -1          0      )

 cart.    s(15) = (  0.0000000 -1.0000000  0.0000000 )
                  (  1.0000000  0.0000000  0.0000000 )
                  (  0.0000000  0.0000000 -1.0000000 )


      isym = 16     inv.  90 deg rotation - cart. axis [0,0,1]   

 cryst.   s(16) = (    -1          0          1      )
                  (    -1          0          0      )
                  (    -1          1          0      )

 cart.    s(16) = (  0.0000000  1.0000000  0.0000000 )
                  ( -1.0000000  0.0000000  0.0000000 )
                  (  0.0000000  0.0000000 -1.0000000 )


      isym = 17     inv. 180 deg rotation - cart. axis [1,0,1]   

 cryst.   s(17) = (     1          0          0      )
                  (     0          0          1      )
                  (     0          1          0      )

 cart.    s(17) = (  0.0000000  0.0000000 -1.0000000 )
                  (  0.0000000  1.0000000  0.0000000 )
                  ( -1.0000000  0.0000000  0.0000000 )


      isym = 18     inv. 180 deg rotation - cart. axis [-1,0,1]  

 cryst.   s(18) = (    -1          0          0      )
                  (    -1          1          0      )
                  (    -1          0          1      )

 cart.    s(18) = (  0.0000000  0.0000000  1.0000000 )
                  (  0.0000000  1.0000000  0.0000000 )
                  (  1.0000000  0.0000000  0.0000000 )


      isym = 19     inv.  90 deg rotation - cart. axis [0,1,0]   

 cryst.   s(19) = (     0         -1          1      )
                  (     1         -1          0      )
                  (     0         -1          0      )

 cart.    s(19) = (  0.0000000  0.0000000 -1.0000000 )
                  (  0.0000000 -1.0000000  0.0000000 )
                  (  1.0000000  0.0000000  0.0000000 )


      isym = 20     inv.  90 deg rotation - cart. axis [0,-1,0]  

 cryst.   s(20) = (     0          1         -1      )
                  (     0          0         -1      )
                  (     1          0         -1      )

 cart.    s(20) = (  0.0000000  0.0000000  1.0000000 )
                  (  0.0000000 -1.0000000  0.0000000 )
                  ( -1.0000000  0.0000000  0.0000000 )


      isym = 21     inv. 180 deg rotation - cart. axis [0,1,1]   

 cryst.   s(21) = (     1         -1          0      )
                  (     0         -1          0      )
                  (     0         -1          1      )

 cart.    s(21) = (  1.0000000  0.0000000  0.0000000 )
                  (  0.0000000  0.0000000 -1.0000000 )
                  (  0.0000000 -1.0000000  0.0000000 )


      isym = 22     inv. 180 deg rotation - cart. axis [0,1,-1]  

 cryst.   s(22) = (     0          0          1      )
                  (     0          1          0      )
                  (     1          0          0      )

 cart.    s(22) = (  1.0000000  0.0000000  0.0000000 )
                  (  0.0000000  0.0000000  1.0000000 )
                  (  0.0000000  1.0000000  0.0000000 )


      isym = 23     inv.  90 deg rotation - cart. axis [-1,0,0]  

 cryst.   s(23) = (     0          0         -1      )
                  (     1          0         -1      )
                  (     0          1         -1      )

 cart.    s(23) = ( -1.0000000  0.0000000  0.0000000 )
                  (  0.0000000  0.0000000 -1.0000000 )
                  (  0.0000000  1.0000000  0.0000000 )


      isym = 24     inv.  90 deg rotation - cart. axis [1,0,0]   

 cryst.   s(24) = (    -1          1          0      )
                  (    -1          0          1      )
                  (    -1          0          0      )

 cart.    s(24) = ( -1.0000000  0.0000000  0.0000000 )
                  (  0.0000000  0.0000000  1.0000000 )
                  (  0.0000000 -1.0000000  0.0000000 )


     point group T_d (-43m) 
     there are  5 classes
     the character table:

       E     8C3   3C2   6S4   6s_d 
A_1    1.00  1.00  1.00  1.00  1.00
A_2    1.00  1.00  1.00 -1.00 -1.00
E      2.00 -1.00  2.00  0.00  0.00
T_1    3.00  0.00 -1.00  1.00 -1.00
T_2    3.00  0.00 -1.00 -1.00  1.00

     the symmetry operations in each class and the name of the first element:

     E        1
          identity                                               
     8C3      5    7    8    6   12    9   10   11
          120 deg rotation - cart. axis [-1,-1,-1]               
     3C2      2    3    4
          180 deg rotation - cart. axis [0,0,1]                  
     6S4     15   16   20   19   23   24
          inv.  90 deg rotation - cart. axis [0,0,-1]            
     6s_d    13   14   17   18   21   22
          inv. 180 deg rotation - cart. axis [1,1,0]             

   Cartesian axes

     site n.     atom                  positions (alat units)
         1        Al     tau(   1) = (   0.0000000   0.0000000   0.0000000  )
         2        As     tau(   2) = (  -0.2500000   0.2500000   0.2500000  )

   Crystallographic axes

     site n.     atom                  positions (cryst. coord.)
         1        Al     tau(   1) = (  0.0000000  0.0000000  0.0000000  )
         2        As     tau(   2) = (  0.2500000  0.2500000  0.2500000  )

     number of k points=    16
                       cart. coord. in units 2pi/alat
        k(    1) = (   0.0000000   0.0000000   0.0000000), wk =   0.0092593
        k(    2) = (  -0.1666667   0.1666667  -0.1666667), wk =   0.0740741
        k(    3) = (  -0.3333333   0.3333333  -0.3333333), wk =   0.0740741
        k(    4) = (   0.5000000  -0.5000000   0.5000000), wk =   0.0370370
        k(    5) = (   0.0000000   0.3333333   0.0000000), wk =   0.0555556
        k(    6) = (  -0.1666667   0.5000000  -0.1666667), wk =   0.2222222
        k(    7) = (   0.6666667  -0.3333333   0.6666667), wk =   0.2222222
        k(    8) = (   0.5000000  -0.1666667   0.5000000), wk =   0.2222222
        k(    9) = (   0.3333333   0.0000000   0.3333333), wk =   0.1111111
        k(   10) = (   0.0000000   0.6666667   0.0000000), wk =   0.0555556
        k(   11) = (   0.8333333  -0.1666667   0.8333333), wk =   0.2222222
        k(   12) = (   0.6666667  -0.0000000   0.6666667), wk =   0.1111111
        k(   13) = (   0.0000000  -1.0000000   0.0000000), wk =   0.0277778
        k(   14) = (   0.6666667  -0.3333333   1.0000000), wk =   0.2222222
        k(   15) = (   0.5000000  -0.1666667   0.8333333), wk =   0.2222222
        k(   16) = (  -0.3333333  -1.0000000   0.0000000), wk =   0.1111111

                       cryst. coord.
        k(    1) = (   0.0000000   0.0000000   0.0000000), wk =   0.0092593
        k(    2) = (   0.0000000   0.0000000   0.1666667), wk =   0.0740741
        k(    3) = (   0.0000000   0.0000000   0.3333333), wk =   0.0740741
        k(    4) = (   0.0000000   0.0000000  -0.5000000), wk =   0.0370370
        k(    5) = (   0.0000000   0.1666667   0.1666667), wk =   0.0555556
        k(    6) = (   0.0000000   0.1666667   0.3333333), wk =   0.2222222
        k(    7) = (   0.0000000   0.1666667  -0.5000000), wk =   0.2222222
        k(    8) = (   0.0000000   0.1666667  -0.3333333), wk =   0.2222222
        k(    9) = (   0.0000000   0.1666667  -0.1666667), wk =   0.1111111
        k(   10) = (   0.0000000   0.3333333   0.3333333), wk =   0.0555556
        k(   11) = (   0.0000000   0.3333333  -0.5000000), wk =   0.2222222
        k(   12) = (   0.0000000   0.3333333  -0.3333333), wk =   0.1111111
        k(   13) = (   0.0000000  -0.5000000  -0.5000000), wk =   0.0277778
        k(   14) = (   0.1666667   0.3333333  -0.5000000), wk =   0.2222222
        k(   15) = (   0.1666667   0.3333333  -0.3333333), wk =   0.2222222
        k(   16) = (   0.1666667  -0.5000000  -0.3333333), wk =   0.1111111

     Dense  grid:    19195 G-vectors     FFT dimensions: (  40,  40,  40)

     Dynamical RAM for                 wfc:       0.15 MB

     Dynamical RAM for     wfc (w. buffer):       2.49 MB

     Dynamical RAM for                 EXX:     510.22 MB

     Dynamical RAM for           str. fact:       0.15 MB

     Dynamical RAM for           local pot:       0.00 MB

     Dynamical RAM for          nlocal pot:       0.24 MB

     Dynamical RAM for                qrad:       2.72 MB

     Dynamical RAM for          rho,v,vnew:       0.59 MB

     Dynamical RAM for               rhoin:       0.20 MB

     Dynamical RAM for            rho*nmix:       1.17 MB

     Dynamical RAM for           G-vectors:       0.31 MB

     Dynamical RAM for          h,s,v(r/c):       0.05 MB

     Dynamical RAM for          <psi|beta>:       0.01 MB

     Dynamical RAM for                 psi:       0.29 MB

     Dynamical RAM for                hpsi:       0.29 MB

     Dynamical RAM for      wfcinit/wfcrot:       0.30 MB

     Estimated static dynamical RAM per process >     517.74 MB

     Estimated max dynamical RAM per process >     519.55 MB

     Estimated total dynamical RAM >       2.03 GB
     EXX: ACE will be initialized later

     Initial potential from superposition of free atoms

     starting charge      15.8865, renormalised to      16.0000
     Starting wfcs are random

     total cpu time spent up to now is        0.3 secs

     Self-consistent Calculation

     iteration #  1     ecut=    60.00 Ry     beta= 0.70
     Davidson diagonalization with overlap

---- Real-time Memory Report at c_bands before calling an iterative solver
            68 MiB given to the printing process from OS
             0 MiB allocation reported by mallinfo(arena+hblkhd)
         13702 MiB available memory on the node where the printing process lives
------------------
     ethr =  1.00E-02,  avg # of iterations =  7.6

     Threshold (ethr) on eigenvalues was too large:
     Diagonalizing with lowered threshold

     Davidson diagonalization with overlap

---- Real-time Memory Report at c_bands before calling an iterative solver
            69 MiB given to the printing process from OS
             0 MiB allocation reported by mallinfo(arena+hblkhd)
         13699 MiB available memory on the node where the printing process lives
------------------
     ethr =  5.42E-04,  avg # of iterations =  1.9

     total cpu time spent up to now is        0.8 secs

     total energy              =    -151.14247367 Ry
     estimated scf accuracy    <       0.08318034 Ry

     iteration #  2     ecut=    60.00 Ry     beta= 0.70
     Davidson diagonalization with overlap

---- Real-time Memory Report at c_bands before calling an iterative solver
            71 MiB given to the printing process from OS
             0 MiB allocation reported by mallinfo(arena+hblkhd)
         13691 MiB available memory on the node where the printing process lives
------------------
     ethr =  5.20E-04,  avg # of iterations =  2.2

     total cpu time spent up to now is        1.0 secs

     total energy              =    -151.15929471 Ry
     estimated scf accuracy    <       0.01258337 Ry

     iteration #  3     ecut=    60.00 Ry     beta= 0.70
     Davidson diagonalization with overlap

---- Real-time Memory Report at c_bands before calling an iterative solver
            71 MiB given to the printing process from OS
             0 MiB allocation reported by mallinfo(arena+hblkhd)
         13691 MiB available memory on the node where the printing process lives
------------------
     ethr =  7.86E-05,  avg # of iterations =  2.9

     total cpu time spent up to now is        1.2 secs

     total energy              =    -151.16151220 Ry
     estimated scf accuracy    <       0.00048951 Ry

     iteration #  4     ecut=    60.00 Ry     beta= 0.70
     Davidson diagonalization with overlap

---- Real-time Memory Report at c_bands before calling an iterative solver
            71 MiB given to the printing process from OS
             0 MiB allocation reported by mallinfo(arena+hblkhd)
         13689 MiB available memory on the node where the printing process lives
------------------
     ethr =  3.06E-06,  avg # of iterations =  4.3

     total cpu time spent up to now is        1.4 secs

     total energy              =    -151.16153519 Ry
     estimated scf accuracy    <       0.00000408 Ry

     iteration #  5     ecut=    60.00 Ry     beta= 0.70
     Davidson diagonalization with overlap

---- Real-time Memory Report at c_bands before calling an iterative solver
            71 MiB given to the printing process from OS
             0 MiB allocation reported by mallinfo(arena+hblkhd)
         13689 MiB available memory on the node where the printing process lives
------------------
     ethr =  2.55E-08,  avg # of iterations =  2.0

     total cpu time spent up to now is        1.5 secs

     total energy              =    -151.16153660 Ry
     estimated scf accuracy    <       0.00000010 Ry

     iteration #  6     ecut=    60.00 Ry     beta= 0.70
     Davidson diagonalization with overlap

---- Real-time Memory Report at c_bands before calling an iterative solver
            72 MiB given to the printing process from OS
             0 MiB allocation reported by mallinfo(arena+hblkhd)
         13689 MiB available memory on the node where the printing process lives
------------------
     ethr =  6.07E-10,  avg # of iterations =  2.0

     total cpu time spent up to now is        1.7 secs

     End of self-consistent calculation

          k = 0.0000 0.0000 0.0000 (  2421 PWs)   bands (ev):

   -96.9288 -58.4190 -58.4190 -58.4190  -5.8860   5.9772   5.9772   5.9772
     8.0138  10.2533  10.2533  10.2533  14.8592  15.0551  15.0551  17.4336

     occupation numbers 
     1.0000   1.0000   1.0000   1.0000   1.0000   1.0000   1.0000   1.0000
     0.0000   0.0000   0.0000   0.0000   0.0000   0.0000   0.0000   0.0000

          k =-0.1667 0.1667-0.1667 (  2397 PWs)   bands (ev):

   -96.9280 -58.4191 -58.4191 -58.4191  -5.6174   3.8763   5.7123   5.7123
     8.7860  10.6926  10.6926  11.1649  14.2542  14.2542  15.7275  17.0315

     occupation numbers 
     1.0000   1.0000   1.0000   1.0000   1.0000   1.0000   1.0000   1.0000
     0.0000   0.0000   0.0000   0.0000   0.0000   0.0000   0.0000   0.0000

          k =-0.3333 0.3333-0.3333 (  2424 PWs)   bands (ev):

   -96.9290 -58.4193 -58.4191 -58.4191  -4.9374   1.4789   5.3100   5.3100
     8.3327  10.8359  10.8359  13.4698  15.0678  15.0678  15.3527  19.9499

     occupation numbers 
     1.0000   1.0000   1.0000   1.0000   1.0000   1.0000   1.0000   1.0000
     0.0000   0.0000   0.0000   0.0000   0.0000   0.0000   0.0000   0.0000

          k = 0.5000-0.5000 0.5000 (  2392 PWs)   bands (ev):

   -96.9281 -58.4193 -58.4191 -58.4191  -4.4633   0.3988   5.1479   5.1479
     8.1071  10.6554  10.6554  13.7261  17.1604  17.6056  17.6059  18.1457

     occupation numbers 
     1.0000   1.0000   1.0000   1.0000   1.0000   1.0000   1.0000   1.0000
     0.0000   0.0000   0.0000   0.0000   0.0000   0.0000   0.0000   0.0000

          k = 0.0000 0.3333 0.0000 (  2405 PWs)   bands (ev):

   -96.9282 -58.4191 -58.4191 -58.4191  -5.5266   3.9693   5.1896   5.1896
     9.2516   9.8987  11.5919  11.5919  12.9306  15.5479  16.6584  18.2936

     occupation numbers 
     1.0000   1.0000   1.0000   1.0000   1.0000   1.0000   1.0000   1.0000
     0.0000   0.0000   0.0000   0.0000   0.0000   0.0000   0.0000   0.0000

          k =-0.1667 0.5000-0.1667 (  2398 PWs)   bands (ev):

   -96.9282 -58.4192 -58.4191 -58.4191  -4.9720   2.1280   4.5429   4.7428
     9.0553  10.4772  11.5393  12.1960  14.7791  16.1881  17.0523  19.3242

     occupation numbers 
     1.0000   1.0000   1.0000   1.0000   1.0000   1.0000   1.0000   1.0000
     0.0000   0.0000   0.0000   0.0000   0.0000   0.0000   0.0000   0.0000

          k = 0.6667-0.3333 0.6667 (  2390 PWs)   bands (ev):

   -96.9281 -58.4193 -58.4191 -58.4191  -4.3562   0.7066   3.8593   4.7083
     8.9362  10.7548  11.7596  13.1108  15.6802  17.4478  17.9032  18.7758

     occupation numbers 
     1.0000   1.0000   1.0000   1.0000   1.0000   1.0000   1.0000   1.0000
     0.0000   0.0000   0.0000   0.0000   0.0000   0.0000   0.0000   0.0000

          k = 0.5000-0.1667 0.5000 (  2407 PWs)   bands (ev):

   -96.9286 -58.4193 -58.4191 -58.4191  -4.5248   1.0577   3.6525   5.0918
     9.2522  10.8431  11.4197  13.4325  14.4527  16.0561  17.6756  19.3194

     occupation numbers 
     1.0000   1.0000   1.0000   1.0000   1.0000   1.0000   1.0000   1.0000
     0.0000   0.0000   0.0000   0.0000   0.0000   0.0000   0.0000   0.0000

          k = 0.3333 0.0000 0.3333 (  2403 PWs)   bands (ev):

   -96.9283 -58.4192 -58.4191 -58.4191  -5.2035   2.6646   4.2893   5.6341
     9.6385  10.7331  10.9571  11.8806  13.2739  15.5694  17.4043  17.9093

     occupation numbers 
     1.0000   1.0000   1.0000   1.0000   1.0000   1.0000   1.0000   1.0000
     0.0000   0.0000   0.0000   0.0000   0.0000   0.0000   0.0000   0.0000

          k = 0.0000 0.6667 0.0000 (  2397 PWs)   bands (ev):

   -96.9283 -58.4193 -58.4191 -58.4191  -4.5975   1.6830   4.1788   4.1788
     7.9577   8.9734  14.1553  14.1553  14.9963  17.0206  19.6724  20.4198

     occupation numbers 
     1.0000   1.0000   1.0000   1.0000   1.0000   1.0000   1.0000   1.0000
     0.0000   0.0000   0.0000   0.0000   0.0000   0.0000   0.0000   0.0000

          k = 0.8333-0.1667 0.8333 (  2398 PWs)   bands (ev):

   -96.9283 -58.4193 -58.4192 -58.4191  -4.0866   0.8831   3.1778   4.0576
     8.0603   9.6989  13.9291  14.2973  16.7261  17.6791  19.1007  19.4536

     occupation numbers 
     1.0000   1.0000   1.0000   1.0000   1.0000   1.0000   1.0000   1.0000
     0.0000   0.0000   0.0000   0.0000   0.0000   0.0000   0.0000   0.0000

          k = 0.6667-0.0000 0.6667 (  2381 PWs)   bands (ev):

   -96.9278 -58.4193 -58.4192 -58.4191  -4.0493   0.9149   2.4480   4.4356
     8.5647  12.3164  13.2869  13.5949  13.9181  14.9345  20.3507  20.7526

     occupation numbers 
     1.0000   1.0000   1.0000   1.0000   1.0000   1.0000   1.0000   1.0000
     0.0000   0.0000   0.0000   0.0000   0.0000   0.0000   0.0000   0.0000

          k = 0.0000-1.0000 0.0000 (  2402 PWs)   bands (ev):

   -96.9284 -58.4193 -58.4192 -58.4192  -3.9116   0.5392   3.7967   3.7967
     7.4012   8.2657  16.3107  16.3107  17.7173  18.6731  18.6731  19.1437

     occupation numbers 
     1.0000   1.0000   1.0000   1.0000   1.0000   1.0000   1.0000   1.0000
     0.0000   0.0000   0.0000   0.0000   0.0000   0.0000   0.0000   0.0000

          k = 0.6667-0.3333 1.0000 (  2399 PWs)   bands (ev):

   -96.9283 -58.4193 -58.4192 -58.4191  -4.4105   1.3319   3.2499   4.3235
     9.6420  10.5217  11.1322  13.9107  15.2637  16.7239  19.0484  19.9603

     occupation numbers 
     1.0000   1.0000   1.0000   1.0000   1.0000   1.0000   1.0000   1.0000
     0.0000   0.0000   0.0000   0.0000   0.0000   0.0000   0.0000   0.0000

          k = 0.5000-0.1667 0.8333 (  2396 PWs)   bands (ev):

   -96.9282 -58.4193 -58.4192 -58.4191  -4.0489   0.8460   2.7983   3.9432
     9.9113  10.5576  12.6868  13.4021  14.3466  17.5056  18.8392  19.5402

     occupation numbers 
     1.0000   1.0000   1.0000   1.0000   1.0000   1.0000   1.0000   1.0000
     0.0000   0.0000   0.0000   0.0000   0.0000   0.0000   0.0000   0.0000

          k =-0.3333-1.0000 0.0000 (  2402 PWs)   bands (ev):

   -96.9284 -58.4193 -58.4192 -58.4192  -3.8875   0.7759   3.0358   3.2795
     9.1437  10.0901  13.1041  13.8149  16.5872  18.3713  18.5895  19.9060

     occupation numbers 
     1.0000   1.0000   1.0000   1.0000   1.0000   1.0000   1.0000   1.0000
     0.0000   0.0000   0.0000   0.0000   0.0000   0.0000   0.0000   0.0000

     highest occupied, lowest unoccupied level (ev):     5.9772    7.4012

!    total energy              =    -151.16153663 Ry
     estimated scf accuracy    <          3.0E-09 Ry

     convergence has been achieved in   6 iterations

     Using ACE for calculation of exact exchange

     EXX grid:    19195 G-vectors     FFT dimensions: (  40,  40,  40)
     ACE projected onto    16 (nbndproj) and applied to    16 (nbnd) bands

     EXX: now go back to refine exchange calculation

     total cpu time spent up to now is      250.9 secs

     Self-consistent Calculation

     iteration #  1     ecut=    60.00 Ry     beta= 0.70
     Davidson diagonalization with overlap

---- Real-time Memory Report at c_bands before calling an iterative solver
          1059 MiB given to the printing process from OS
             0 MiB allocation reported by mallinfo(arena+hblkhd)
          9763 MiB available memory on the node where the printing process lives
------------------
     ethr =  6.07E-10,  avg # of iterations =  6.2

     total cpu time spent up to now is      251.2 secs

     total energy              =    -151.18737460 Ry
     estimated scf accuracy    <       0.00015339 Ry

     iteration #  2     ecut=    60.00 Ry     beta= 0.70
     Davidson diagonalization with overlap

---- Real-time Memory Report at c_bands before calling an iterative solver
          1059 MiB given to the printing process from OS
             0 MiB allocation reported by mallinfo(arena+hblkhd)
          9761 MiB available memory on the node where the printing process lives
------------------
     ethr =  9.59E-07,  avg # of iterations =  2.0

     total cpu time spent up to now is      251.3 secs

     total energy              =    -151.18740554 Ry
     estimated scf accuracy    <       0.00001857 Ry

     iteration #  3     ecut=    60.00 Ry     beta= 0.70
     Davidson diagonalization with overlap

---- Real-time Memory Report at c_bands before calling an iterative solver
          1059 MiB given to the printing process from OS
             0 MiB allocation reported by mallinfo(arena+hblkhd)
          9761 MiB available memory on the node where the printing process lives
------------------
     ethr =  1.16E-07,  avg # of iterations =  1.9

     total cpu time spent up to now is      251.5 secs

     total energy              =    -151.18740888 Ry
     estimated scf accuracy    <       0.00000075 Ry

     iteration #  4     ecut=    60.00 Ry     beta= 0.70
     Davidson diagonalization with overlap

---- Real-time Memory Report at c_bands before calling an iterative solver
          1059 MiB given to the printing process from OS
             0 MiB allocation reported by mallinfo(arena+hblkhd)
          9760 MiB available memory on the node where the printing process lives
------------------
     ethr =  4.66E-09,  avg # of iterations =  1.2

     total cpu time spent up to now is      251.6 secs

     End of self-consistent calculation

          k = 0.0000 0.0000 0.0000 (  2421 PWs)   bands (ev):

  -103.2433 -61.1494 -61.1494 -61.1494  -7.1039   5.6080   5.6080   5.6080
     8.3097  10.7068  10.7069  10.7069  15.3326  15.5971  15.5971  17.9851

     occupation numbers 
     1.0000   1.0000   1.0000   1.0000   1.0000   1.0000   1.0000   1.0000
     0.0000   0.0000   0.0000   0.0000   0.0000   0.0000   0.0000   0.0000

          k =-0.1667 0.1667-0.1667 (  2397 PWs)   bands (ev):

  -103.2415 -61.1497 -61.1490 -61.1490  -6.8181   3.3779   5.3287   5.3287
     9.1262  11.1693  11.1693  11.6165  14.7540  14.7540  16.2367  17.5762

     occupation numbers 
     1.0000   1.0000   1.0000   1.0000   1.0000   1.0000   1.0000   1.0000
     0.0000   0.0000   0.0000   0.0000   0.0000   0.0000   0.0000   0.0000

          k =-0.3333 0.3333-0.3333 (  2424 PWs)   bands (ev):

  -103.2436 -61.1498 -61.1495 -61.1495  -6.0889   0.7887   4.9029   4.9029
     8.6434  11.2911  11.2911  13.9891  15.6265  15.6265  15.8620  20.6981

     occupation numbers 
     1.0000   1.0000   1.0000   1.0000   1.0000   1.0000   1.0000   1.0000
     0.0000   0.0000   0.0000   0.0000   0.0000   0.0000   0.0000   0.0000

          k = 0.5000-0.5000 0.5000 (  2392 PWs)   bands (ev):

  -103.2417 -61.1501 -61.1491 -61.1491  -5.5841  -0.3745   4.7296   4.7296
     8.4013  11.0897  11.0898  14.1816  17.7792  18.2672  18.2681  18.8244

     occupation numbers 
     1.0000   1.0000   1.0000   1.0000   1.0000   1.0000   1.0000   1.0000
     0.0000   0.0000   0.0000   0.0000   0.0000   0.0000   0.0000   0.0000

          k = 0.0000 0.3333 0.0000 (  2405 PWs)   bands (ev):

  -103.2415 -61.1498 -61.1489 -61.1489  -6.7214   3.4798   4.7754   4.7754
     9.6205  10.2846  12.1115  12.1116  13.3671  16.1118  17.2341  18.8659

     occupation numbers 
     1.0000   1.0000   1.0000   1.0000   1.0000   1.0000   1.0000   1.0000
     0.0000   0.0000   0.0000   0.0000   0.0000   0.0000   0.0000   0.0000

          k =-0.1667 0.5000-0.1667 (  2398 PWs)   bands (ev):

  -103.2418 -61.1497 -61.1493 -61.1491  -6.1274   1.4878   4.0905   4.2991
     9.3934  10.9215  11.9707  12.7281  15.3717  16.7838  17.6074  19.9962

     occupation numbers 
     1.0000   1.0000   1.0000   1.0000   1.0000   1.0000   1.0000   1.0000
     0.0000   0.0000   0.0000   0.0000   0.0000   0.0000   0.0000   0.0000

          k = 0.6667-0.3333 0.6667 (  2390 PWs)   bands (ev):

  -103.2413 -61.1500 -61.1492 -61.1490  -5.4688  -0.0456   3.3590   4.2621
     9.2682  11.1788  12.2506  13.6447  16.2377  18.1073  18.5196  19.4749

     occupation numbers 
     1.0000   1.0000   1.0000   1.0000   1.0000   1.0000   1.0000   1.0000
     0.0000   0.0000   0.0000   0.0000   0.0000   0.0000   0.0000   0.0000

          k = 0.5000-0.1667 0.5000 (  2407 PWs)   bands (ev):

  -103.2421 -61.1499 -61.1494 -61.1491  -5.6486   0.3330   3.1359   4.6700
     9.6118  11.2571  11.9101  13.9805  14.9891  16.6635  18.2672  20.0672

     occupation numbers 
     1.0000   1.0000   1.0000   1.0000   1.0000   1.0000   1.0000   1.0000
     0.0000   0.0000   0.0000   0.0000   0.0000   0.0000   0.0000   0.0000

          k = 0.3333 0.0000 0.3333 (  2403 PWs)   bands (ev):

  -103.2416 -61.1498 -61.1491 -61.1489  -6.3758   2.0687   3.8175   5.2441
    10.0447  11.1411  11.4600  12.3527  13.7275  16.1559  18.0318  18.4697

     occupation numbers 
     1.0000   1.0000   1.0000   1.0000   1.0000   1.0000   1.0000   1.0000
     0.0000   0.0000   0.0000   0.0000   0.0000   0.0000   0.0000   0.0000

          k = 0.0000 0.6667 0.0000 (  2397 PWs)   bands (ev):

  -103.2429 -61.1498 -61.1496 -61.1496  -5.7239   1.0022   3.6972   3.6972
     8.2404   9.2892  14.7957  14.7957  15.5975  17.6342  20.3899  21.1139

     occupation numbers 
     1.0000   1.0000   1.0000   1.0000   1.0000   1.0000   1.0000   1.0000
     0.0000   0.0000   0.0000   0.0000   0.0000   0.0000   0.0000   0.0000

          k = 0.8333-0.1667 0.8333 (  2398 PWs)   bands (ev):

  -103.2419 -61.1500 -61.1493 -61.1493  -5.1778   0.1359   2.6292   3.5681
     8.3418  10.0601  14.5288  14.9141  17.4081  18.3474  19.8853  20.1755

     occupation numbers 
     1.0000   1.0000   1.0000   1.0000   1.0000   1.0000   1.0000   1.0000
     0.0000   0.0000   0.0000   0.0000   0.0000   0.0000   0.0000   0.0000

          k = 0.6667-0.0000 0.6667 (  2381 PWs)   bands (ev):

  -103.2423 -61.1498 -61.1498 -61.1497  -5.1345   0.1685   1.8436   3.9721
     8.8714  12.7947  13.8753  14.1802  14.5043  15.4763  20.9732  21.4088

     occupation numbers 
     1.0000   1.0000   1.0000   1.0000   1.0000   1.0000   1.0000   1.0000
     0.0000   0.0000   0.0000   0.0000   0.0000   0.0000   0.0000   0.0000

          k = 0.0000-1.0000 0.0000 (  2402 PWs)   bands (ev):

  -103.2417 -61.1502 -61.1492 -61.1492  -4.9907  -0.2371   3.2894   3.2894
     7.6549   8.5472  17.0552  17.0552  18.4229  19.3774  19.3774  19.8317

     occupation numbers 
     1.0000   1.0000   1.0000   1.0000   1.0000   1.0000   1.0000   1.0000
     0.0000   0.0000   0.0000   0.0000   0.0000   0.0000   0.0000   0.0000

          k = 0.6667-0.3333 1.0000 (  2399 PWs)   bands (ev):

  -103.2416 -61.1500 -61.1492 -61.1491  -5.5263   0.6247   2.7042   3.8544
    10.0039  10.9498  11.5685  14.5210  15.8559  17.3897  19.6936  20.7029

     occupation numbers 
     1.0000   1.0000   1.0000   1.0000   1.0000   1.0000   1.0000   1.0000
     0.0000   0.0000   0.0000   0.0000   0.0000   0.0000   0.0000   0.0000

          k = 0.5000-0.1667 0.8333 (  2396 PWs)   bands (ev):

  -103.2418 -61.1499 -61.1494 -61.1493  -5.1369   0.0968   2.2188   3.4502
    10.2721  10.9879  13.2235  13.9322  14.9607  18.1639  19.5803  20.1540

     occupation numbers 
     1.0000   1.0000   1.0000   1.0000   1.0000   1.0000   1.0000   1.0000
     0.0000   0.0000   0.0000   0.0000   0.0000   0.0000   0.0000   0.0000

          k =-0.3333-1.0000 0.0000 (  2402 PWs)   bands (ev):

  -103.2417 -61.1501 -61.1493 -61.1492  -4.9643   0.0163   2.4726   2.7462
     9.4740  10.4764  13.6636  14.3864  17.2902  19.1444  19.2771  20.6554

     occupation numbers 
     1.0000   1.0000   1.0000   1.0000   1.0000   1.0000   1.0000   1.0000
     0.0000   0.0000   0.0000   0.0000   0.0000   0.0000   0.0000   0.0000

     highest occupied, lowest unoccupied level (ev):     5.6080    7.6549

!    total energy              =    -151.18740893 Ry
     estimated scf accuracy    <          3.7E-09 Ry

     convergence has been achieved in   4 iterations

     Using ACE for calculation of exact exchange
     ACE projected onto    16 (nbndproj) and applied to    16 (nbnd) bands

     total energy              =    -151.18748208 Ry
     Harris-Foulkes estimate   =    -151.18748208 Ry
     est. exchange err (dexx)  =       0.00007315 Ry
     - averaged Fock potential =       8.04850770 Ry
     + Fock energy (ACE)       =      -4.02554962 Ry

     EXX: now go back to refine exchange calculation

     total cpu time spent up to now is      498.7 secs

     Self-consistent Calculation

     iteration #  1     ecut=    60.00 Ry     beta= 0.70
     Davidson diagonalization with overlap

---- Real-time Memory Report at c_bands before calling an iterative solver
          1059 MiB given to the printing process from OS
             0 MiB allocation reported by mallinfo(arena+hblkhd)
          9766 MiB available memory on the node where the printing process lives
------------------
     ethr =  4.66E-09,  avg # of iterations =  3.0

     total cpu time spent up to now is      498.9 secs

     total energy              =    -151.18748795 Ry
     estimated scf accuracy    <       0.00000159 Ry

     iteration #  2     ecut=    60.00 Ry     beta= 0.70
     Davidson diagonalization with overlap

---- Real-time Memory Report at c_bands before calling an iterative solver
          1059 MiB given to the printing process from OS
             0 MiB allocation reported by mallinfo(arena+hblkhd)
          9759 MiB available memory on the node where the printing process lives
------------------
     ethr =  9.91E-09,  avg # of iterations =  2.0

     total cpu time spent up to now is      499.1 secs

     total energy              =    -151.18748824 Ry
     estimated scf accuracy    <       0.00000018 Ry

     iteration #  3     ecut=    60.00 Ry     beta= 0.70
     Davidson diagonalization with overlap

---- Real-time Memory Report at c_bands before calling an iterative solver
          1059 MiB given to the printing process from OS
             0 MiB allocation reported by mallinfo(arena+hblkhd)
          9757 MiB available memory on the node where the printing process lives
------------------
     ethr =  1.15E-09,  avg # of iterations =  2.0

     total cpu time spent up to now is      499.2 secs

     End of self-consistent calculation

          k = 0.0000 0.0000 0.0000 (  2421 PWs)   bands (ev):

  -103.2462 -61.1597 -61.1597 -61.1597  -7.1024   5.5997   5.5997   5.5997
     8.3243  10.7111  10.7111  10.7111  15.3369  15.5960  15.5960  17.9868

     occupation numbers 
     1.0000   1.0000   1.0000   1.0000   1.0000   1.0000   1.0000   1.0000
     0.0000   0.0000   0.0000   0.0000   0.0000   0.0000   0.0000   0.0000

          k =-0.1667 0.1667-0.1667 (  2397 PWs)   bands (ev):

  -103.2446 -61.1600 -61.1594 -61.1594  -6.8166   3.3775   5.3215   5.3215
     9.1364  11.1726  11.1726  11.6193  14.7533  14.7533  16.2395  17.5785

     occupation numbers 
     1.0000   1.0000   1.0000   1.0000   1.0000   1.0000   1.0000   1.0000
     0.0000   0.0000   0.0000   0.0000   0.0000   0.0000   0.0000   0.0000

          k =-0.3333 0.3333-0.3333 (  2424 PWs)   bands (ev):

  -103.2465 -61.1601 -61.1598 -61.1598  -6.0879   0.7902   4.8964   4.8964
     8.6530  11.2940  11.2940  13.9918  15.6261  15.6261  15.8645  20.6998

     occupation numbers 
     1.0000   1.0000   1.0000   1.0000   1.0000   1.0000   1.0000   1.0000
     0.0000   0.0000   0.0000   0.0000   0.0000   0.0000   0.0000   0.0000

          k = 0.5000-0.5000 0.5000 (  2392 PWs)   bands (ev):

  -103.2447 -61.1604 -61.1595 -61.1595  -5.5831  -0.3725   4.7233   4.7233
     8.4110  11.0924  11.0924  14.1843  17.7816  18.2678  18.2683  18.8231

     occupation numbers 
     1.0000   1.0000   1.0000   1.0000   1.0000   1.0000   1.0000   1.0000
     0.0000   0.0000   0.0000   0.0000   0.0000   0.0000   0.0000   0.0000

          k = 0.0000 0.3333 0.0000 (  2405 PWs)   bands (ev):

  -103.2446 -61.1601 -61.1593 -61.1593  -6.7199   3.4800   4.7698   4.7698
     9.6260  10.2915  12.1134  12.1134  13.3674  16.1104  17.2371  18.8672

     occupation numbers 
     1.0000   1.0000   1.0000   1.0000   1.0000   1.0000   1.0000   1.0000
     0.0000   0.0000   0.0000   0.0000   0.0000   0.0000   0.0000   0.0000

          k =-0.1667 0.5000-0.1667 (  2398 PWs)   bands (ev):

  -103.2448 -61.1600 -61.1597 -61.1595  -6.1261   1.4891   4.0876   4.2942
     9.3984  10.9265  11.9715  12.7293  15.3733  16.7832  17.6090  19.9977

     occupation numbers 
     1.0000   1.0000   1.0000   1.0000   1.0000   1.0000   1.0000   1.0000
     0.0000   0.0000   0.0000   0.0000   0.0000   0.0000   0.0000   0.0000

          k = 0.6667-0.3333 0.6667 (  2390 PWs)   bands (ev):

  -103.2444 -61.1603 -61.1596 -61.1594  -5.4678  -0.0436   3.3575   4.2570
     9.2738  11.1814  12.2521  13.6463  16.2394  18.1074  18.5212  19.4739

     occupation numbers 
     1.0000   1.0000   1.0000   1.0000   1.0000   1.0000   1.0000   1.0000
     0.0000   0.0000   0.0000   0.0000   0.0000   0.0000   0.0000   0.0000

          k = 0.5000-0.1667 0.5000 (  2407 PWs)   bands (ev):

  -103.2452 -61.1601 -61.1597 -61.1595  -5.6476   0.3348   3.1347   4.6642
     9.6181  11.2591  11.9123  13.9825  14.9885  16.6656  18.2681  20.0664

     occupation numbers 
     1.0000   1.0000   1.0000   1.0000   1.0000   1.0000   1.0000   1.0000
     0.0000   0.0000   0.0000   0.0000   0.0000   0.0000   0.0000   0.0000

          k = 0.3333 0.0000 0.3333 (  2403 PWs)   bands (ev):

  -103.2446 -61.1601 -61.1594 -61.1593  -6.3744   2.0696   3.8152   5.2370
    10.0527  11.1423  11.4635  12.3548  13.7266  16.1569  18.0339  18.4702

     occupation numbers 
     1.0000   1.0000   1.0000   1.0000   1.0000   1.0000   1.0000   1.0000
     0.0000   0.0000   0.0000   0.0000   0.0000   0.0000   0.0000   0.0000

          k = 0.0000 0.6667 0.0000 (  2397 PWs)   bands (ev):

  -103.2458 -61.1601 -61.1600 -61.1600  -5.7231   1.0038   3.6929   3.6929
     8.2466   9.2939  14.7969  14.7969  15.5999  17.6332  20.3918  21.1137

     occupation numbers 
     1.0000   1.0000   1.0000   1.0000   1.0000   1.0000   1.0000   1.0000
     0.0000   0.0000   0.0000   0.0000   0.0000   0.0000   0.0000   0.0000

          k = 0.8333-0.1667 0.8333 (  2398 PWs)   bands (ev):

  -103.2449 -61.1603 -61.1597 -61.1596  -5.1771   0.1379   2.6280   3.5639
     8.3471  10.0628  14.5309  14.9153  17.4106  18.3473  19.8857  20.1740

     occupation numbers 
     1.0000   1.0000   1.0000   1.0000   1.0000   1.0000   1.0000   1.0000
     0.0000   0.0000   0.0000   0.0000   0.0000   0.0000   0.0000   0.0000

          k = 0.6667-0.0000 0.6667 (  2381 PWs)   bands (ev):

  -103.2452 -61.1601 -61.1601 -61.1600  -5.1342   0.1709   1.8434   3.9674
     8.8769  12.7956  13.8773  14.1819  14.5069  15.4751  20.9738  21.4079

     occupation numbers 
     1.0000   1.0000   1.0000   1.0000   1.0000   1.0000   1.0000   1.0000
     0.0000   0.0000   0.0000   0.0000   0.0000   0.0000   0.0000   0.0000

          k = 0.0000-1.0000 0.0000 (  2402 PWs)   bands (ev):

  -103.2447 -61.1605 -61.1595 -61.1595  -4.9900  -0.2349   3.2853   3.2853
     7.6609   8.5522  17.0583  17.0583  18.4263  19.3750  19.3751  19.8322

     occupation numbers 
     1.0000   1.0000   1.0000   1.0000   1.0000   1.0000   1.0000   1.0000
     0.0000   0.0000   0.0000   0.0000   0.0000   0.0000   0.0000   0.0000

          k = 0.6667-0.3333 1.0000 (  2399 PWs)   bands (ev):

  -103.2447 -61.1603 -61.1595 -61.1595  -5.5253   0.6265   2.7030   3.8512
    10.0064  10.9537  11.5703  14.5222  15.8568  17.3910  19.6941  20.7015

     occupation numbers 
     1.0000   1.0000   1.0000   1.0000   1.0000   1.0000   1.0000   1.0000
     0.0000   0.0000   0.0000   0.0000   0.0000   0.0000   0.0000   0.0000

          k = 0.5000-0.1667 0.8333 (  2396 PWs)   bands (ev):

  -103.2448 -61.1602 -61.1598 -61.1597  -5.1363   0.0990   2.2183   3.4478
    10.2741  10.9910  13.2257  13.9329  14.9622  18.1650  19.5795  20.1548

     occupation numbers 
     1.0000   1.0000   1.0000   1.0000   1.0000   1.0000   1.0000   1.0000
     0.0000   0.0000   0.0000   0.0000   0.0000   0.0000   0.0000   0.0000

          k =-0.3333-1.0000 0.0000 (  2402 PWs)   bands (ev):

  -103.2448 -61.1603 -61.1597 -61.1595  -4.9636   0.0186   2.4710   2.7452
     9.4763  10.4791  13.6657  14.3876  17.2923  19.1435  19.2786  20.6544

     occupation numbers 
     1.0000   1.0000   1.0000   1.0000   1.0000   1.0000   1.0000   1.0000
     0.0000   0.0000   0.0000   0.0000   0.0000   0.0000   0.0000   0.0000

     highest occupied, lowest unoccupied level (ev):     5.5997    7.6609

!    total energy              =    -151.18748827 Ry
     estimated scf accuracy    <          8.6E-09 Ry

     convergence has been achieved in   3 iterations

     Using ACE for calculation of exact exchange
     ACE projected onto    16 (nbndproj) and applied to    16 (nbnd) bands

     total energy              =    -151.18748890 Ry
     Harris-Foulkes estimate   =    -151.18748890 Ry
     est. exchange err (dexx)  =       0.00000063 Ry
     - averaged Fock potential =       8.05137425 Ry
     + Fock energy (ACE)       =      -4.02582526 Ry

     EXX: now go back to refine exchange calculation

     total cpu time spent up to now is      744.8 secs

     Self-consistent Calculation

     iteration #  1     ecut=    60.00 Ry     beta= 0.70
     Davidson diagonalization with overlap

---- Real-time Memory Report at c_bands before calling an iterative solver
          1059 MiB given to the printing process from OS
             0 MiB allocation reported by mallinfo(arena+hblkhd)
          9765 MiB available memory on the node where the printing process lives
------------------
     ethr =  1.15E-09,  avg # of iterations =  2.2

     Threshold (ethr) on eigenvalues was too large:
     Diagonalizing with lowered threshold

     Davidson diagonalization with overlap

---- Real-time Memory Report at c_bands before calling an iterative solver
          1059 MiB given to the printing process from OS
             0 MiB allocation reported by mallinfo(arena+hblkhd)
          9764 MiB available memory on the node where the printing process lives
------------------
     ethr =  8.50E-11,  avg # of iterations =  1.0

     total cpu time spent up to now is      745.1 secs

     total energy              =    -151.18748896 Ry
     estimated scf accuracy    <       0.00000001 Ry

     iteration #  2     ecut=    60.00 Ry     beta= 0.70
     Davidson diagonalization with overlap

---- Real-time Memory Report at c_bands before calling an iterative solver
          1059 MiB given to the printing process from OS
             0 MiB allocation reported by mallinfo(arena+hblkhd)
          9758 MiB available memory on the node where the printing process lives
------------------
     ethr =  8.55E-11,  avg # of iterations =  2.0

     total cpu time spent up to now is      745.2 secs

     End of self-consistent calculation

          k = 0.0000 0.0000 0.0000 (  2421 PWs)   bands (ev):

  -103.2470 -61.1609 -61.1609 -61.1609  -7.1021   5.5990   5.5990   5.5990
     8.3260  10.7115  10.7115  10.7115  15.3373  15.5959  15.5959  17.9871

     occupation numbers 
     1.0000   1.0000   1.0000   1.0000   1.0000   1.0000   1.0000   1.0000
     0.0000   0.0000   0.0000   0.0000   0.0000   0.0000   0.0000   0.0000

          k =-0.1667 0.1667-0.1667 (  2397 PWs)   bands (ev):

  -103.2453 -61.1612 -61.1606 -61.1606  -6.8162   3.3776   5.3209   5.3209
     9.1375  11.1730  11.1730  11.6197  14.7534  14.7534  16.2399  17.5788

     occupation numbers 
     1.0000   1.0000   1.0000   1.0000   1.0000   1.0000   1.0000   1.0000
     0.0000   0.0000   0.0000   0.0000   0.0000   0.0000   0.0000   0.0000

          k =-0.3333 0.3333-0.3333 (  2424 PWs)   bands (ev):

  -103.2472 -61.1613 -61.1611 -61.1611  -6.0876   0.7904   4.8959   4.8959
     8.6541  11.2943  11.2943  13.9923  15.6262  15.6262  15.8649  20.7001

     occupation numbers 
     1.0000   1.0000   1.0000   1.0000   1.0000   1.0000   1.0000   1.0000
     0.0000   0.0000   0.0000   0.0000   0.0000   0.0000   0.0000   0.0000

          k = 0.5000-0.5000 0.5000 (  2392 PWs)   bands (ev):

  -103.2454 -61.1616 -61.1608 -61.1608  -5.5827  -0.3722   4.7228   4.7228
     8.4122  11.0927  11.0927  14.1848  17.7819  18.2679  18.2682  18.8230

     occupation numbers 
     1.0000   1.0000   1.0000   1.0000   1.0000   1.0000   1.0000   1.0000
     0.0000   0.0000   0.0000   0.0000   0.0000   0.0000   0.0000   0.0000

          k = 0.0000 0.3333 0.0000 (  2405 PWs)   bands (ev):

  -103.2453 -61.1613 -61.1605 -61.1605  -6.7195   3.4802   4.7694   4.7694
     9.6265  10.2924  12.1136  12.1136  13.3676  16.1104  17.2375  18.8675

     occupation numbers 
     1.0000   1.0000   1.0000   1.0000   1.0000   1.0000   1.0000   1.0000
     0.0000   0.0000   0.0000   0.0000   0.0000   0.0000   0.0000   0.0000

          k =-0.1667 0.5000-0.1667 (  2398 PWs)   bands (ev):

  -103.2455 -61.1612 -61.1609 -61.1607  -6.1258   1.4893   4.0874   4.2938
     9.3990  10.9272  11.9717  12.7295  15.3736  16.7832  17.6093  19.9979

     occupation numbers 
     1.0000   1.0000   1.0000   1.0000   1.0000   1.0000   1.0000   1.0000
     0.0000   0.0000   0.0000   0.0000   0.0000   0.0000   0.0000   0.0000

          k = 0.6667-0.3333 0.6667 (  2390 PWs)   bands (ev):

  -103.2451 -61.1616 -61.1608 -61.1607  -5.4674  -0.0434   3.3575   4.2566
     9.2744  11.1818  12.2523  13.6465  16.2397  18.1075  18.5214  19.4739

     occupation numbers 
     1.0000   1.0000   1.0000   1.0000   1.0000   1.0000   1.0000   1.0000
     0.0000   0.0000   0.0000   0.0000   0.0000   0.0000   0.0000   0.0000

          k = 0.5000-0.1667 0.5000 (  2407 PWs)   bands (ev):

  -103.2459 -61.1614 -61.1610 -61.1608  -5.6473   0.3351   3.1347   4.6638
     9.6188  11.2594  11.9126  13.9829  14.9886  16.6658  18.2683  20.0665

     occupation numbers 
     1.0000   1.0000   1.0000   1.0000   1.0000   1.0000   1.0000   1.0000
     0.0000   0.0000   0.0000   0.0000   0.0000   0.0000   0.0000   0.0000

          k = 0.3333 0.0000 0.3333 (  2403 PWs)   bands (ev):

  -103.2454 -61.1613 -61.1607 -61.1605  -6.3740   2.0699   3.8150   5.2364
    10.0537  11.1425  11.4639  12.3552  13.7266  16.1571  18.0342  18.4704

     occupation numbers 
     1.0000   1.0000   1.0000   1.0000   1.0000   1.0000   1.0000   1.0000
     0.0000   0.0000   0.0000   0.0000   0.0000   0.0000   0.0000   0.0000

          k = 0.0000 0.6667 0.0000 (  2397 PWs)   bands (ev):

  -103.2465 -61.1613 -61.1612 -61.1612  -5.7228   1.0040   3.6926   3.6926
     8.2473   9.2945  14.7971  14.7971  15.6003  17.6332  20.3921  21.1139

     occupation numbers 
     1.0000   1.0000   1.0000   1.0000   1.0000   1.0000   1.0000   1.0000
     0.0000   0.0000   0.0000   0.0000   0.0000   0.0000   0.0000   0.0000

          k = 0.8333-0.1667 0.8333 (  2398 PWs)   bands (ev):

  -103.2457 -61.1615 -61.1610 -61.1609  -5.1768   0.1382   2.6279   3.5635
     8.3478  10.0632  14.5312  14.9155  17.4110  18.3474  19.8859  20.1739

     occupation numbers 
     1.0000   1.0000   1.0000   1.0000   1.0000   1.0000   1.0000   1.0000
     0.0000   0.0000   0.0000   0.0000   0.0000   0.0000   0.0000   0.0000

          k = 0.6667-0.0000 0.6667 (  2381 PWs)   bands (ev):

  -103.2460 -61.1614 -61.1613 -61.1612  -5.1339   0.1712   1.8434   3.9670
     8.8775  12.7959  13.8776  14.1822  14.5073  15.4750  20.9740  21.4078

     occupation numbers 
     1.0000   1.0000   1.0000   1.0000   1.0000   1.0000   1.0000   1.0000
     0.0000   0.0000   0.0000   0.0000   0.0000   0.0000   0.0000   0.0000

          k = 0.0000-1.0000 0.0000 (  2402 PWs)   bands (ev):

  -103.2455 -61.1617 -61.1608 -61.1608  -4.9896  -0.2346   3.2850   3.2850
     7.6616   8.5529  17.0588  17.0588  18.4269  19.3749  19.3749  19.8323

     occupation numbers 
     1.0000   1.0000   1.0000   1.0000   1.0000   1.0000   1.0000   1.0000
     0.0000   0.0000   0.0000   0.0000   0.0000   0.0000   0.0000   0.0000

          k = 0.6667-0.3333 1.0000 (  2399 PWs)   bands (ev):

  -103.2454 -61.1615 -61.1608 -61.1607  -5.5250   0.6268   2.7030   3.8510
    10.0068  10.9543  11.5705  14.5224  15.8571  17.3912  19.6943  20.7005

     occupation numbers 
     1.0000   1.0000   1.0000   1.0000   1.0000   1.0000   1.0000   1.0000
     0.0000   0.0000   0.0000   0.0000   0.0000   0.0000   0.0000   0.0000

          k = 0.5000-0.1667 0.8333 (  2396 PWs)   bands (ev):

  -103.2456 -61.1614 -61.1610 -61.1609  -5.1360   0.0993   2.2183   3.4477
    10.2744  10.9914  13.2260  13.9330  14.9624  18.1653  19.5796  20.1550

     occupation numbers 
     1.0000   1.0000   1.0000   1.0000   1.0000   1.0000   1.0000   1.0000
     0.0000   0.0000   0.0000   0.0000   0.0000   0.0000   0.0000   0.0000

          k =-0.3333-1.0000 0.0000 (  2402 PWs)   bands (ev):

  -103.2455 -61.1616 -61.1609 -61.1608  -4.9633   0.0188   2.4709   2.7452
     9.4767  10.4795  13.6661  14.3879  17.2926  19.1435  19.2788  20.6544

     occupation numbers 
     1.0000   1.0000   1.0000   1.0000   1.0000   1.0000   1.0000   1.0000
     0.0000   0.0000   0.0000   0.0000   0.0000   0.0000   0.0000   0.0000

     highest occupied, lowest unoccupied level (ev):     5.5990    7.6616

!    total energy              =    -151.18748896 Ry
     estimated scf accuracy    <          1.3E-09 Ry

     convergence has been achieved in   2 iterations

     Using ACE for calculation of exact exchange
     ACE projected onto    16 (nbndproj) and applied to    16 (nbnd) bands

!!   total energy              =    -151.18748897 Ry
     Harris-Foulkes estimate   =    -151.18748897 Ry
     est. exchange err (dexx)  =          7.1E-09 Ry
     - averaged Fock potential =       8.05167897 Ry
     + Fock energy (ACE)       =      -4.02585372 Ry

     EXX self-consistency reached

     Writing all to output data dir ./out_fg/alasfg.save/ :
     XML data file, charge density, pseudopotentials, collected wavefunctions

     init_run     :      0.27s CPU      0.27s WALL (       1 calls)
     electrons    :      2.76s CPU      2.99s WALL (       4 calls)

     Called by init_run:
     aceinit0     :      0.00s CPU      0.00s WALL (       1 calls)
     wfcinit      :      0.05s CPU      0.06s WALL (       1 calls)
     wfcinit:wfcr :      0.05s CPU      0.05s WALL (      16 calls)
     potinit      :      0.01s CPU      0.01s WALL (       1 calls)
     hinit0       :      0.19s CPU      0.19s WALL (       1 calls)

     Called by electrons:
     c_bands      :      2.29s CPU      2.44s WALL (      17 calls)
     sum_band     :      0.36s CPU      0.41s WALL (      17 calls)
     v_of_rho     :      0.11s CPU      0.12s WALL (      17 calls)
     v_h          :      0.00s CPU      0.00s WALL (      17 calls)
     v_xc         :      0.11s CPU      0.12s WALL (      17 calls)
     mix_rho      :      0.00s CPU      0.00s WALL (      17 calls)

     Called by c_bands:
     init_us_2    :      0.05s CPU      0.06s WALL (     560 calls)
     cegterg      :      2.19s CPU      2.35s WALL (     272 calls)

     Called by sum_band:
     sum_band:wei :      0.00s CPU      0.00s WALL (      17 calls)
     sum_band:loo :      0.35s CPU      0.40s WALL (      17 calls)
     sum_band:buf :      0.00s CPU      0.00s WALL (     272 calls)
     sum_band:ini :      0.02s CPU      0.03s WALL (     272 calls)

     Called by *egterg:
     cdiaghg      :      0.13s CPU      0.14s WALL (     935 calls)
     cegterg:over :      0.07s CPU      0.07s WALL (     743 calls)
     cegterg:upda :      0.03s CPU      0.03s WALL (     743 calls)
     cegterg:last :      0.05s CPU      0.05s WALL (     618 calls)
     h_psi        :      1.90s CPU      2.03s WALL (    1031 calls)
     g_psi        :      0.01s CPU      0.02s WALL (     743 calls)

     Called by h_psi:
     h_psi:calbec :      0.06s CPU      0.06s WALL (    1031 calls)
     vloc_psi     :      1.77s CPU      1.89s WALL (    1031 calls)
                                        0.00s GPU  (    1031 calls)
     add_vuspsi   :      0.03s CPU      0.03s WALL (    1031 calls)

     General routines
     calbec       :      0.09s CPU      0.10s WALL (    1855 calls)
     fft          :      0.20s CPU      0.20s WALL (     166 calls)
     ffts         :      0.00s CPU      0.00s WALL (      17 calls)
     fftw         :      1.89s CPU      2.04s WALL (   27820 calls)
     fftc         :    667.14s CPU    740.60s WALL ( 7077888 calls)
     fftcw        :      0.20s CPU      0.27s WALL (    3072 calls)

     Parallel routines

     EXX routines
     exx_grid     :      0.00s CPU      0.00s WALL (       1 calls)
     exxinit      :      2.89s CPU      4.00s WALL (       4 calls)
     vexx         :    886.07s CPU    982.98s WALL (      64 calls)
     matcalc      :      0.03s CPU      0.04s WALL (     824 calls)
     aceupdate    :      0.00s CPU      0.00s WALL (      64 calls)
     vexxace      :      0.04s CPU      0.05s WALL (     648 calls)
     aceinit      :    886.08s CPU    982.99s WALL (      64 calls)

     PWSCF        :  14m52.03s CPU  16m30.36s WALL


   This run was terminated on:   8:26:38  25Jun2026            

=------------------------------------------------------------------------------=
   JOB DONE.
=------------------------------------------------------------------------------=
