
     Program PWSCF v.7.5 starts on 26Jun2026 at  9:33:18 

     This program is part of the open-source Quantum ESPRESSO suite
     for quantum simulation of materials; please cite
         "P. Giannozzi et al., J. Phys.:Condens. Matter 21 395502 (2009);
         "P. Giannozzi et al., J. Phys.:Condens. Matter 29 465901 (2017);
         "P. Giannozzi et al., J. Chem. Phys. 152 154105 (2020);
          URL http://www.quantum-espresso.org", 
     in publications or presentations arising from this work. More details at
     http://www.quantum-espresso.org/quote

     Parallel version (MPI & OpenMP), running on       4 processor cores
     Number of MPI processes:                 4
     Threads/MPI process:                     1

     MPI processes distributed on     1 nodes
     13961 MiB available memory on the printing compute node when the environment starts

     Reading input from lif.qc.in

     Current dimensions of program PWSCF are:
     Max number of different atomic species (ntypx) = 10
     Max number of k-points (npk) =  40000
     Max angular momentum in pseudopotentials (lmaxx) =  4

     IMPORTANT: XC functional enforced from input :
     Exchange-correlation= HSE
                           (   1   4  12   4   0   0   0)
     EXX-fraction              =        0.25
     Any further DFT definition will be discarded
     Please, verify this is what you really want

     EXX Screening parameter changed:    0.7250000
     EXX fraction changed:   1.00
     DD-RSH-CAM (LMODELHF) semilocal: AEXX, BEXX =   0.4899  0.6027
     DD-RSH-CAM (LMODELHF) enabled
     AEXX =  0.4899   BEXX =  0.6027   mu(bohr^-1) =  0.7250

     R & G space division:  proc/nbgrp/npool/nimage =       4
     Subspace diagonalization in iterative solution of the eigenvalue problem:
     a serial algorithm will be used

     EXX: q-point mesh:     6    6    6
     EXX: setup a grid of 216 q-points centered on each k-point
     (k+q)-points:
   0.0000000   0.0000000   0.0000000         1    1
  -0.1666667   0.1666667  -0.1666667         2    1
  -0.3333333   0.3333333  -0.3333333         3    1
   0.5000000  -0.5000000   0.5000000         4    1
   0.3333333  -0.3333333   0.3333333         3   -1
   0.1666667  -0.1666667   0.1666667         2   -1
   0.1666667   0.1666667   0.1666667         2    3
   0.0000000   0.3333333   0.0000000         5    1
  -0.1666667   0.5000000  -0.1666667         6    1
   0.6666667  -0.3333333   0.6666667         7    1
   0.5000000  -0.1666667   0.5000000         8    1
   0.3333333   0.0000000   0.3333333         9    1
   0.3333333   0.3333333   0.3333333         3    3
   0.1666667   0.5000000   0.1666667         6    3
   0.0000000   0.6666667   0.0000000        10    1
   0.8333333  -0.1666667   0.8333333        11    1
   0.6666667   0.0000000   0.6666667        12    1
   0.5000000   0.1666667   0.5000000         8   -3
  -0.5000000  -0.5000000  -0.5000000         4    3
  -0.6666667  -0.3333333  -0.6666667         7    3
  -0.8333333  -0.1666667  -0.8333333        11    3
   0.0000000  -1.0000000   0.0000000        13    1
   0.8333333   0.1666667   0.8333333        11   -3
   0.6666667   0.3333333   0.6666667         7   -3
  -0.3333333  -0.3333333  -0.3333333         3   -3
  -0.5000000  -0.1666667  -0.5000000         8    3
  -0.6666667   0.0000000  -0.6666667        12   -1
  -0.8333333   0.1666667  -0.8333333        11   -1
   0.0000000  -0.6666667   0.0000000        10   -1
  -0.1666667  -0.5000000  -0.1666667         6   -3
  -0.1666667  -0.1666667  -0.1666667         2   -3
  -0.3333333   0.0000000  -0.3333333         9   -1
  -0.5000000   0.1666667  -0.5000000         8   -1
  -0.6666667   0.3333333  -0.6666667         7   -1
   0.1666667  -0.5000000   0.1666667         6   -1
   0.0000000  -0.3333333   0.0000000         5   -1
  -0.1666667  -0.1666667   0.1666667         2    4
  -0.3333333   0.0000000   0.0000000         5   -5
  -0.5000000   0.1666667  -0.1666667         6   -5
   0.3333333  -0.6666667   0.6666667         7   -5
   0.1666667  -0.5000000   0.5000000         8   -5
   0.0000000  -0.3333333   0.3333333         9   -5
   0.0000000   0.0000000   0.3333333         5   13
  -0.1666667   0.1666667   0.1666667         2   -2
  -0.3333333   0.3333333   0.0000000         9   13
  -0.5000000   0.5000000  -0.1666667         8   13
  -0.6666667   0.6666667  -0.3333333         7   13
   0.1666667  -0.1666667   0.5000000         6   13
   0.1666667   0.1666667   0.5000000         6  -16
   0.0000000   0.3333333   0.3333333         9   -6
  -0.1666667   0.5000000   0.1666667         6   -2
   0.6666667  -0.3333333   1.0000000        14    1
   0.5000000  -0.1666667   0.8333333        15    1
  -0.6666667   1.0000000  -0.3333333        14   13
  -0.6666667  -0.6666667  -0.3333333         7  -16
   0.1666667   0.5000000   0.5000000         8    7
  -1.0000000  -0.3333333  -0.6666667        14   -9
   0.8333333  -0.1666667  -0.8333333        11   -2
  -0.3333333  -1.0000000   0.0000000        16    1
   0.5000000   0.1666667   0.8333333        15   -3
  -0.5000000  -0.5000000  -0.1666667         8  -16
   0.3333333   0.6666667   0.6666667         7    7
  -0.8333333  -0.1666667  -0.5000000        15   -9
   0.0000000  -1.0000000   0.3333333        16   -9
   0.8333333   0.1666667  -0.8333333        11    4
   0.6666667   0.3333333   1.0000000        14   -3
  -0.3333333  -0.3333333   0.0000000         9   14
  -0.5000000  -0.1666667  -0.1666667         6    7
   0.3333333  -1.0000000   0.6666667        14   22
  -0.8333333   0.1666667  -0.5000000        15   10
  -1.0000000   0.3333333  -0.6666667        14   10
  -0.1666667  -0.5000000   0.1666667         6    4
  -0.3333333  -0.3333333   0.3333333         3    4
  -0.5000000  -0.1666667   0.1666667         6   -8
  -0.6666667   0.0000000   0.0000000        10   -5
   0.1666667  -0.8333333   0.8333333        11   -5
   0.0000000  -0.6666667   0.6666667        12   -5
  -0.1666667  -0.5000000   0.5000000         8    8
  -0.1666667  -0.1666667   0.5000000         6  -14
  -0.3333333   0.0000000   0.3333333         9    2
  -0.5000000   0.1666667   0.1666667         6    6
   0.3333333  -0.6666667   1.0000000        14   -5
   0.1666667  -0.5000000   0.8333333        15   -5
   1.0000000   0.6666667  -0.3333333        14   17
   0.0000000   0.0000000   0.6666667        10   13
  -0.1666667   0.1666667   0.5000000         6   15
  -0.3333333   0.3333333   0.3333333         3   -2
  -0.5000000   0.5000000   0.1666667         8  -15
  -0.6666667   0.6666667   0.0000000        12   13
  -0.8333333   0.8333333  -0.1666667        11   13
  -0.8333333  -0.8333333  -0.1666667        11  -16
  -1.0000000  -0.6666667  -0.3333333        14   18
  -0.1666667   0.5000000   0.5000000         8   -6
   0.6666667  -0.3333333  -0.6666667         7   -2
   0.5000000  -0.1666667  -0.8333333        15   -2
   0.3333333   0.0000000  -1.0000000        16   13
  -0.6666667  -0.6666667   0.0000000        12   14
   0.1666667   0.5000000   0.8333333        15    7
   0.0000000   0.6666667   0.6666667        12   -6
   0.8333333  -0.1666667  -0.5000000        15   12
   0.6666667   0.0000000  -0.6666667        12   -2
   0.5000000   0.1666667  -0.8333333        15    4
  -0.5000000  -0.5000000   0.1666667         8   14
   0.3333333   0.6666667   1.0000000        14    7
   0.1666667   0.8333333   0.8333333        11    7
  -1.0000000   0.0000000  -0.3333333        16   21
   0.8333333   0.1666667  -0.5000000        15  -11
   0.6666667   0.3333333  -0.6666667         7    4
   0.5000000   0.5000000  -0.5000000         4    4
   0.3333333   0.6666667  -0.6666667         7   -8
   0.1666667   0.8333333  -0.8333333        11   -8
  -1.0000000   0.0000000   0.0000000        13    5
  -0.1666667  -0.8333333   0.8333333        11    8
  -0.3333333  -0.6666667   0.6666667         7    8
   0.6666667   0.6666667  -0.3333333         7  -14
  -0.5000000  -0.1666667   0.5000000         8   -4
   0.3333333  -1.0000000  -0.6666667        14  -21
   0.1666667  -0.8333333  -0.8333333        11    6
   1.0000000   0.3333333   0.0000000        16   -5
  -0.1666667  -0.5000000   0.8333333        15    8
   0.8333333   0.8333333  -0.1666667        11  -14
   0.6666667   1.0000000  -0.3333333        14  -14
  -0.5000000   0.1666667   0.5000000         8    2
   0.3333333  -0.6666667  -0.6666667         7    6
   0.1666667  -0.5000000  -0.8333333        15    6
   0.0000000  -0.3333333  -1.0000000        16   17
   0.0000000   0.0000000  -1.0000000        13   13
   0.8333333  -0.8333333  -0.1666667        11   15
   0.6666667  -0.6666667  -0.3333333         7   15
  -0.5000000   0.5000000   0.5000000         4    2
  -0.6666667   0.6666667   0.3333333         7  -15
  -0.8333333   0.8333333   0.1666667        11  -15
  -0.8333333  -0.8333333   0.1666667        11   14
   0.0000000   0.3333333   1.0000000        16  -17
  -0.1666667   0.5000000   0.8333333        15   -6
  -0.3333333   0.6666667   0.6666667         7   -6
   0.5000000  -0.1666667  -0.5000000         8   -2
  -0.6666667  -1.0000000   0.3333333        14   14
  -0.6666667  -0.6666667   0.3333333         7   14
   0.1666667   0.5000000  -0.8333333        15   -8
  -1.0000000  -0.3333333   0.0000000        16    5
  -0.1666667   0.8333333   0.8333333        11   -6
  -0.3333333   1.0000000   0.6666667        14   21
   0.5000000   0.1666667  -0.5000000         8    4
   0.3333333   0.3333333  -0.3333333         3   -4
   0.1666667   0.5000000  -0.5000000         8   -8
   0.0000000   0.6666667  -0.6666667        12    5
  -0.1666667   0.8333333  -0.8333333        11    5
   0.6666667   0.0000000   0.0000000        10    5
   0.5000000   0.1666667  -0.1666667         6    8
   0.5000000   0.5000000  -0.1666667         8  -14
  -0.6666667  -0.3333333   0.6666667         7   -4
  -0.8333333  -0.1666667   0.5000000        15   11
   1.0000000   0.0000000   0.3333333        16  -21
  -0.1666667  -0.8333333  -0.8333333        11   -7
  -0.3333333  -0.6666667  -1.0000000        14   -7
   0.6666667   0.6666667   0.0000000        12  -14
  -0.5000000  -0.1666667   0.8333333        15   -4
  -0.6666667   0.0000000   0.6666667        12    2
  -0.8333333   0.1666667   0.5000000        15  -12
   0.0000000  -0.6666667  -0.6666667        12    6
  -0.1666667  -0.5000000  -0.8333333        15   -7
   0.8333333   0.8333333   0.1666667        11   16
  -0.3333333   0.0000000   1.0000000        16  -13
  -0.5000000   0.1666667   0.8333333        15    2
  -0.6666667   0.3333333   0.6666667         7    2
   0.1666667  -0.5000000  -0.5000000         8    6
   1.0000000   0.6666667   0.3333333        14  -18
   0.0000000   0.0000000  -0.6666667        10  -13
   0.8333333  -0.8333333   0.1666667        11  -13
   0.6666667  -0.6666667   0.0000000        12  -13
   0.5000000  -0.5000000  -0.1666667         8   15
   0.3333333  -0.3333333  -0.3333333         3    2
   0.1666667  -0.1666667  -0.5000000         6  -15
   0.1666667   0.1666667  -0.5000000         6   14
  -1.0000000  -0.6666667   0.3333333        14  -17
  -0.1666667   0.5000000  -0.8333333        15    5
  -0.3333333   0.6666667  -1.0000000        14    5
   0.5000000  -0.1666667  -0.1666667         6   -6
   0.3333333   0.0000000  -0.3333333         9   -2
   0.1666667   0.1666667  -0.1666667         2   -4
   0.0000000   0.3333333  -0.3333333         9    5
  -0.1666667   0.5000000  -0.5000000         8    5
  -0.3333333   0.6666667  -0.6666667         7    5
   0.5000000  -0.1666667   0.1666667         6    5
   0.3333333   0.0000000   0.0000000         5    5
   0.3333333   0.3333333   0.0000000         9  -14
   0.1666667   0.5000000  -0.1666667         6   -4
   1.0000000  -0.3333333   0.6666667        14  -10
   0.8333333  -0.1666667   0.5000000        15  -10
  -0.3333333   1.0000000  -0.6666667        14  -22
   0.5000000   0.1666667   0.1666667         6   -7
   0.5000000   0.5000000   0.1666667         8   16
  -0.6666667  -0.3333333  -1.0000000        14    3
  -0.8333333  -0.1666667   0.8333333        11   -4
   0.0000000   1.0000000  -0.3333333        16    9
   0.8333333   0.1666667   0.5000000        15    9
  -0.3333333  -0.6666667  -0.6666667         7   -7
   0.6666667   0.6666667   0.3333333         7   16
  -0.5000000  -0.1666667  -0.8333333        15    3
   0.3333333   1.0000000   0.0000000        16   -1
  -0.8333333   0.1666667   0.8333333        11    2
   1.0000000   0.3333333   0.6666667        14    9
  -0.1666667  -0.5000000  -0.5000000         8   -7
  -0.1666667  -0.1666667  -0.5000000         6   16
   0.6666667  -1.0000000   0.3333333        14  -13
  -0.5000000   0.1666667  -0.8333333        15   -1
  -0.6666667   0.3333333  -1.0000000        14   -1
   0.1666667  -0.5000000  -0.1666667         6    2
   0.0000000  -0.3333333  -0.3333333         9    6
   0.0000000   0.0000000  -0.3333333         5  -13
  -0.1666667   0.1666667  -0.5000000         6  -13
   0.6666667  -0.6666667   0.3333333         7  -13
   0.5000000  -0.5000000   0.1666667         8  -13
   0.3333333  -0.3333333   0.0000000         9  -13
   0.1666667  -0.1666667  -0.1666667         2    2

     Parallelization info
     --------------------
     sticks:   dense  smooth     PW     G-vecs:    dense   smooth      PW
     Min         162     162     49                 2693     2693     457
     Max         163     163     50                 2695     2695     460
     Sum         649     649    199                10777    10777    1837

     Using Slab Decomposition



     bravais-lattice index     =            2
     lattice parameter (alat)  =       7.6050  a.u.
     unit-cell volume          =     109.9607 (a.u.)^3
     number of atoms/cell      =            2
     number of atomic types    =            2
     number of electrons       =        10.00
     number of Kohn-Sham states=           12
     kinetic-energy cutoff     =      80.0000  Ry
     charge density cutoff     =     320.0000  Ry
     cutoff for Fock operator  =     320.0000  Ry
     scf convergence threshold =      1.0E-08
     mixing beta               =       0.7000
     number of iterations used =            8  plain     mixing
     Exchange-correlation= HSE
                           (   1   4  12   4   0   0   0)
     EXX-fraction              =        1.00

     celldm(1)=   7.605000  celldm(2)=   0.000000  celldm(3)=   0.000000
     celldm(4)=   0.000000  celldm(5)=   0.000000  celldm(6)=   0.000000

     crystal axes: (cart. coord. in units of alat)
               a(1) = (  -0.500000   0.000000   0.500000 )  
               a(2) = (   0.000000   0.500000   0.500000 )  
               a(3) = (  -0.500000   0.500000   0.000000 )  

     reciprocal axes: (cart. coord. in units 2 pi/alat)
               b(1) = ( -1.000000 -1.000000  1.000000 )  
               b(2) = (  1.000000  1.000000  1.000000 )  
               b(3) = ( -1.000000  1.000000 -1.000000 )  


     PseudoPot. # 1 for Li read from file:
     ../../../../pseudos/Li_ONCV_PBE-1.2.upf
     MD5 check sum: c91dd4cee9943b136ac3b62641658f95
     Pseudo is Norm-conserving, Zval =  3.0
     Generated using ONCVPSP code by D. R. Hamann
     Using radial grid of  602 points,  4 beta functions with: 
                l(1) =   0
                l(2) =   0
                l(3) =   1
                l(4) =   1

     PseudoPot. # 2 for F  read from file:
     ../../../../pseudos/F_ONCV_PBE-1.2.upf
     MD5 check sum: 1d8275f47d602dd53cad6bcdc0eda7dc
     Pseudo is Norm-conserving, Zval =  7.0
     Generated using ONCVPSP code by D. R. Hamann
     Using radial grid of  602 points,  4 beta functions with: 
                l(1) =   0
                l(2) =   0
                l(3) =   1
                l(4) =   1

     atomic species   valence    mass     pseudopotential
     Li                3.00     6.94100     Li( 1.00)
     F                 7.00    18.99800     F ( 1.00)

     48 Sym. Ops., with inversion, found


                                    s                        frac. trans.

      isym =  1     identity                                     

 cryst.   s( 1) = (     1          0          0      )
                  (     0          1          0      )
                  (     0          0          1      )

 cart.    s( 1) = (  1.0000000  0.0000000  0.0000000 )
                  (  0.0000000  1.0000000  0.0000000 )
                  (  0.0000000  0.0000000  1.0000000 )


      isym =  2     180 deg rotation - cart. axis [0,0,1]        

 cryst.   s( 2) = (     0          1         -1      )
                  (     1          0         -1      )
                  (     0          0         -1      )

 cart.    s( 2) = ( -1.0000000  0.0000000  0.0000000 )
                  (  0.0000000 -1.0000000  0.0000000 )
                  (  0.0000000  0.0000000  1.0000000 )


      isym =  3     180 deg rotation - cart. axis [0,1,0]        

 cryst.   s( 3) = (    -1          0          0      )
                  (    -1          0          1      )
                  (    -1          1          0      )

 cart.    s( 3) = ( -1.0000000  0.0000000  0.0000000 )
                  (  0.0000000  1.0000000  0.0000000 )
                  (  0.0000000  0.0000000 -1.0000000 )


      isym =  4     180 deg rotation - cart. axis [1,0,0]        

 cryst.   s( 4) = (     0         -1          1      )
                  (     0         -1          0      )
                  (     1         -1          0      )

 cart.    s( 4) = (  1.0000000  0.0000000  0.0000000 )
                  (  0.0000000 -1.0000000  0.0000000 )
                  (  0.0000000  0.0000000 -1.0000000 )


      isym =  5     180 deg rotation - cart. axis [1,1,0]        

 cryst.   s( 5) = (     0         -1          0      )
                  (    -1          0          0      )
                  (     0          0         -1      )

 cart.    s( 5) = (  0.0000000  1.0000000  0.0000000 )
                  (  1.0000000  0.0000000  0.0000000 )
                  (  0.0000000  0.0000000 -1.0000000 )


      isym =  6     180 deg rotation - cart. axis [1,-1,0]       

 cryst.   s( 6) = (    -1          0          1      )
                  (     0         -1          1      )
                  (     0          0          1      )

 cart.    s( 6) = (  0.0000000 -1.0000000  0.0000000 )
                  ( -1.0000000  0.0000000  0.0000000 )
                  (  0.0000000  0.0000000 -1.0000000 )


      isym =  7      90 deg rotation - cart. axis [0,0,-1]       

 cryst.   s( 7) = (     0          1          0      )
                  (     0          1         -1      )
                  (    -1          1          0      )

 cart.    s( 7) = (  0.0000000  1.0000000  0.0000000 )
                  ( -1.0000000  0.0000000  0.0000000 )
                  (  0.0000000  0.0000000  1.0000000 )


      isym =  8      90 deg rotation - cart. axis [0,0,1]        

 cryst.   s( 8) = (     1          0         -1      )
                  (     1          0          0      )
                  (     1         -1          0      )

 cart.    s( 8) = (  0.0000000 -1.0000000  0.0000000 )
                  (  1.0000000  0.0000000  0.0000000 )
                  (  0.0000000  0.0000000  1.0000000 )


      isym =  9     180 deg rotation - cart. axis [1,0,1]        

 cryst.   s( 9) = (    -1          0          0      )
                  (     0          0         -1      )
                  (     0         -1          0      )

 cart.    s( 9) = (  0.0000000  0.0000000  1.0000000 )
                  (  0.0000000 -1.0000000  0.0000000 )
                  (  1.0000000  0.0000000  0.0000000 )


      isym = 10     180 deg rotation - cart. axis [-1,0,1]       

 cryst.   s(10) = (     1          0          0      )
                  (     1         -1          0      )
                  (     1          0         -1      )

 cart.    s(10) = (  0.0000000  0.0000000 -1.0000000 )
                  (  0.0000000 -1.0000000  0.0000000 )
                  ( -1.0000000  0.0000000  0.0000000 )


      isym = 11      90 deg rotation - cart. axis [0,1,0]        

 cryst.   s(11) = (     0          1         -1      )
                  (    -1          1          0      )
                  (     0          1          0      )

 cart.    s(11) = (  0.0000000  0.0000000  1.0000000 )
                  (  0.0000000  1.0000000  0.0000000 )
                  ( -1.0000000  0.0000000  0.0000000 )


      isym = 12      90 deg rotation - cart. axis [0,-1,0]       

 cryst.   s(12) = (     0         -1          1      )
                  (     0          0          1      )
                  (    -1          0          1      )

 cart.    s(12) = (  0.0000000  0.0000000 -1.0000000 )
                  (  0.0000000  1.0000000  0.0000000 )
                  (  1.0000000  0.0000000  0.0000000 )


      isym = 13     180 deg rotation - cart. axis [0,1,1]        

 cryst.   s(13) = (    -1          1          0      )
                  (     0          1          0      )
                  (     0          1         -1      )

 cart.    s(13) = ( -1.0000000  0.0000000  0.0000000 )
                  (  0.0000000  0.0000000  1.0000000 )
                  (  0.0000000  1.0000000  0.0000000 )


      isym = 14     180 deg rotation - cart. axis [0,1,-1]       

 cryst.   s(14) = (     0          0         -1      )
                  (     0         -1          0      )
                  (    -1          0          0      )

 cart.    s(14) = ( -1.0000000  0.0000000  0.0000000 )
                  (  0.0000000  0.0000000 -1.0000000 )
                  (  0.0000000 -1.0000000  0.0000000 )


      isym = 15      90 deg rotation - cart. axis [-1,0,0]       

 cryst.   s(15) = (     0          0          1      )
                  (    -1          0          1      )
                  (     0         -1          1      )

 cart.    s(15) = (  1.0000000  0.0000000  0.0000000 )
                  (  0.0000000  0.0000000  1.0000000 )
                  (  0.0000000 -1.0000000  0.0000000 )


      isym = 16      90 deg rotation - cart. axis [1,0,0]        

 cryst.   s(16) = (     1         -1          0      )
                  (     1          0         -1      )
                  (     1          0          0      )

 cart.    s(16) = (  1.0000000  0.0000000  0.0000000 )
                  (  0.0000000  0.0000000 -1.0000000 )
                  (  0.0000000  1.0000000  0.0000000 )


      isym = 17     120 deg rotation - cart. axis [-1,-1,-1]     

 cryst.   s(17) = (    -1          0          1      )
                  (    -1          1          0      )
                  (    -1          0          0      )

 cart.    s(17) = (  0.0000000  1.0000000  0.0000000 )
                  (  0.0000000  0.0000000  1.0000000 )
                  (  1.0000000  0.0000000  0.0000000 )


      isym = 18     120 deg rotation - cart. axis [-1,1,1]       

 cryst.   s(18) = (     0          1          0      )
                  (     0          0          1      )
                  (     1          0          0      )

 cart.    s(18) = (  0.0000000 -1.0000000  0.0000000 )
                  (  0.0000000  0.0000000  1.0000000 )
                  ( -1.0000000  0.0000000  0.0000000 )


      isym = 19     120 deg rotation - cart. axis [1,1,-1]       

 cryst.   s(19) = (     1          0         -1      )
                  (     0          0         -1      )
                  (     0          1         -1      )

 cart.    s(19) = (  0.0000000  1.0000000  0.0000000 )
                  (  0.0000000  0.0000000 -1.0000000 )
                  ( -1.0000000  0.0000000  0.0000000 )


      isym = 20     120 deg rotation - cart. axis [1,-1,1]       

 cryst.   s(20) = (     0         -1          0      )
                  (     1         -1          0      )
                  (     0         -1          1      )

 cart.    s(20) = (  0.0000000 -1.0000000  0.0000000 )
                  (  0.0000000  0.0000000 -1.0000000 )
                  (  1.0000000  0.0000000  0.0000000 )


      isym = 21     120 deg rotation - cart. axis [1,1,1]        

 cryst.   s(21) = (     0          0         -1      )
                  (     0          1         -1      )
                  (     1          0         -1      )

 cart.    s(21) = (  0.0000000  0.0000000  1.0000000 )
                  (  1.0000000  0.0000000  0.0000000 )
                  (  0.0000000  1.0000000  0.0000000 )


      isym = 22     120 deg rotation - cart. axis [-1,1,-1]      

 cryst.   s(22) = (    -1          1          0      )
                  (    -1          0          0      )
                  (    -1          0          1      )

 cart.    s(22) = (  0.0000000  0.0000000  1.0000000 )
                  ( -1.0000000  0.0000000  0.0000000 )
                  (  0.0000000 -1.0000000  0.0000000 )


      isym = 23     120 deg rotation - cart. axis [1,-1,-1]      

 cryst.   s(23) = (     0          0          1      )
                  (     1          0          0      )
                  (     0          1          0      )

 cart.    s(23) = (  0.0000000  0.0000000 -1.0000000 )
                  ( -1.0000000  0.0000000  0.0000000 )
                  (  0.0000000  1.0000000  0.0000000 )


      isym = 24     120 deg rotation - cart. axis [-1,-1,1]      

 cryst.   s(24) = (     1         -1          0      )
                  (     0         -1          1      )
                  (     0         -1          0      )

 cart.    s(24) = (  0.0000000  0.0000000 -1.0000000 )
                  (  1.0000000  0.0000000  0.0000000 )
                  (  0.0000000 -1.0000000  0.0000000 )


      isym = 25     inversion                                    

 cryst.   s(25) = (    -1          0          0      )
                  (     0         -1          0      )
                  (     0          0         -1      )

 cart.    s(25) = ( -1.0000000  0.0000000  0.0000000 )
                  (  0.0000000 -1.0000000  0.0000000 )
                  (  0.0000000  0.0000000 -1.0000000 )


      isym = 26     inv. 180 deg rotation - cart. axis [0,0,1]   

 cryst.   s(26) = (     0         -1          1      )
                  (    -1          0          1      )
                  (     0          0          1      )

 cart.    s(26) = (  1.0000000  0.0000000  0.0000000 )
                  (  0.0000000  1.0000000  0.0000000 )
                  (  0.0000000  0.0000000 -1.0000000 )


      isym = 27     inv. 180 deg rotation - cart. axis [0,1,0]   

 cryst.   s(27) = (     1          0          0      )
                  (     1          0         -1      )
                  (     1         -1          0      )

 cart.    s(27) = (  1.0000000  0.0000000  0.0000000 )
                  (  0.0000000 -1.0000000  0.0000000 )
                  (  0.0000000  0.0000000  1.0000000 )


      isym = 28     inv. 180 deg rotation - cart. axis [1,0,0]   

 cryst.   s(28) = (     0          1         -1      )
                  (     0          1          0      )
                  (    -1          1          0      )

 cart.    s(28) = ( -1.0000000  0.0000000  0.0000000 )
                  (  0.0000000  1.0000000  0.0000000 )
                  (  0.0000000  0.0000000  1.0000000 )


      isym = 29     inv. 180 deg rotation - cart. axis [1,1,0]   

 cryst.   s(29) = (     0          1          0      )
                  (     1          0          0      )
                  (     0          0          1      )

 cart.    s(29) = (  0.0000000 -1.0000000  0.0000000 )
                  ( -1.0000000  0.0000000  0.0000000 )
                  (  0.0000000  0.0000000  1.0000000 )


      isym = 30     inv. 180 deg rotation - cart. axis [1,-1,0]  

 cryst.   s(30) = (     1          0         -1      )
                  (     0          1         -1      )
                  (     0          0         -1      )

 cart.    s(30) = (  0.0000000  1.0000000  0.0000000 )
                  (  1.0000000  0.0000000  0.0000000 )
                  (  0.0000000  0.0000000  1.0000000 )


      isym = 31     inv.  90 deg rotation - cart. axis [0,0,-1]  

 cryst.   s(31) = (     0         -1          0      )
                  (     0         -1          1      )
                  (     1         -1          0      )

 cart.    s(31) = (  0.0000000 -1.0000000  0.0000000 )
                  (  1.0000000  0.0000000  0.0000000 )
                  (  0.0000000  0.0000000 -1.0000000 )


      isym = 32     inv.  90 deg rotation - cart. axis [0,0,1]   

 cryst.   s(32) = (    -1          0          1      )
                  (    -1          0          0      )
                  (    -1          1          0      )

 cart.    s(32) = (  0.0000000  1.0000000  0.0000000 )
                  ( -1.0000000  0.0000000  0.0000000 )
                  (  0.0000000  0.0000000 -1.0000000 )


      isym = 33     inv. 180 deg rotation - cart. axis [1,0,1]   

 cryst.   s(33) = (     1          0          0      )
                  (     0          0          1      )
                  (     0          1          0      )

 cart.    s(33) = (  0.0000000  0.0000000 -1.0000000 )
                  (  0.0000000  1.0000000  0.0000000 )
                  ( -1.0000000  0.0000000  0.0000000 )


      isym = 34     inv. 180 deg rotation - cart. axis [-1,0,1]  

 cryst.   s(34) = (    -1          0          0      )
                  (    -1          1          0      )
                  (    -1          0          1      )

 cart.    s(34) = (  0.0000000  0.0000000  1.0000000 )
                  (  0.0000000  1.0000000  0.0000000 )
                  (  1.0000000  0.0000000  0.0000000 )


      isym = 35     inv.  90 deg rotation - cart. axis [0,1,0]   

 cryst.   s(35) = (     0         -1          1      )
                  (     1         -1          0      )
                  (     0         -1          0      )

 cart.    s(35) = (  0.0000000  0.0000000 -1.0000000 )
                  (  0.0000000 -1.0000000  0.0000000 )
                  (  1.0000000  0.0000000  0.0000000 )


      isym = 36     inv.  90 deg rotation - cart. axis [0,-1,0]  

 cryst.   s(36) = (     0          1         -1      )
                  (     0          0         -1      )
                  (     1          0         -1      )

 cart.    s(36) = (  0.0000000  0.0000000  1.0000000 )
                  (  0.0000000 -1.0000000  0.0000000 )
                  ( -1.0000000  0.0000000  0.0000000 )


      isym = 37     inv. 180 deg rotation - cart. axis [0,1,1]   

 cryst.   s(37) = (     1         -1          0      )
                  (     0         -1          0      )
                  (     0         -1          1      )

 cart.    s(37) = (  1.0000000  0.0000000  0.0000000 )
                  (  0.0000000  0.0000000 -1.0000000 )
                  (  0.0000000 -1.0000000  0.0000000 )


      isym = 38     inv. 180 deg rotation - cart. axis [0,1,-1]  

 cryst.   s(38) = (     0          0          1      )
                  (     0          1          0      )
                  (     1          0          0      )

 cart.    s(38) = (  1.0000000  0.0000000  0.0000000 )
                  (  0.0000000  0.0000000  1.0000000 )
                  (  0.0000000  1.0000000  0.0000000 )


      isym = 39     inv.  90 deg rotation - cart. axis [-1,0,0]  

 cryst.   s(39) = (     0          0         -1      )
                  (     1          0         -1      )
                  (     0          1         -1      )

 cart.    s(39) = ( -1.0000000  0.0000000  0.0000000 )
                  (  0.0000000  0.0000000 -1.0000000 )
                  (  0.0000000  1.0000000  0.0000000 )


      isym = 40     inv.  90 deg rotation - cart. axis [1,0,0]   

 cryst.   s(40) = (    -1          1          0      )
                  (    -1          0          1      )
                  (    -1          0          0      )

 cart.    s(40) = ( -1.0000000  0.0000000  0.0000000 )
                  (  0.0000000  0.0000000  1.0000000 )
                  (  0.0000000 -1.0000000  0.0000000 )


      isym = 41     inv. 120 deg rotation - cart. axis [-1,-1,-1]

 cryst.   s(41) = (     1          0         -1      )
                  (     1         -1          0      )
                  (     1          0          0      )

 cart.    s(41) = (  0.0000000 -1.0000000  0.0000000 )
                  (  0.0000000  0.0000000 -1.0000000 )
                  ( -1.0000000  0.0000000  0.0000000 )


      isym = 42     inv. 120 deg rotation - cart. axis [-1,1,1]  

 cryst.   s(42) = (     0         -1          0      )
                  (     0          0         -1      )
                  (    -1          0          0      )

 cart.    s(42) = (  0.0000000  1.0000000  0.0000000 )
                  (  0.0000000  0.0000000 -1.0000000 )
                  (  1.0000000  0.0000000  0.0000000 )


      isym = 43     inv. 120 deg rotation - cart. axis [1,1,-1]  

 cryst.   s(43) = (    -1          0          1      )
                  (     0          0          1      )
                  (     0         -1          1      )

 cart.    s(43) = (  0.0000000 -1.0000000  0.0000000 )
                  (  0.0000000  0.0000000  1.0000000 )
                  (  1.0000000  0.0000000  0.0000000 )


      isym = 44     inv. 120 deg rotation - cart. axis [1,-1,1]  

 cryst.   s(44) = (     0          1          0      )
                  (    -1          1          0      )
                  (     0          1         -1      )

 cart.    s(44) = (  0.0000000  1.0000000  0.0000000 )
                  (  0.0000000  0.0000000  1.0000000 )
                  ( -1.0000000  0.0000000  0.0000000 )


      isym = 45     inv. 120 deg rotation - cart. axis [1,1,1]   

 cryst.   s(45) = (     0          0          1      )
                  (     0         -1          1      )
                  (    -1          0          1      )

 cart.    s(45) = (  0.0000000  0.0000000 -1.0000000 )
                  ( -1.0000000  0.0000000  0.0000000 )
                  (  0.0000000 -1.0000000  0.0000000 )


      isym = 46     inv. 120 deg rotation - cart. axis [-1,1,-1] 

 cryst.   s(46) = (     1         -1          0      )
                  (     1          0          0      )
                  (     1          0         -1      )

 cart.    s(46) = (  0.0000000  0.0000000 -1.0000000 )
                  (  1.0000000  0.0000000  0.0000000 )
                  (  0.0000000  1.0000000  0.0000000 )


      isym = 47     inv. 120 deg rotation - cart. axis [1,-1,-1] 

 cryst.   s(47) = (     0          0         -1      )
                  (    -1          0          0      )
                  (     0         -1          0      )

 cart.    s(47) = (  0.0000000  0.0000000  1.0000000 )
                  (  1.0000000  0.0000000  0.0000000 )
                  (  0.0000000 -1.0000000  0.0000000 )


      isym = 48     inv. 120 deg rotation - cart. axis [-1,-1,1] 

 cryst.   s(48) = (    -1          1          0      )
                  (     0          1         -1      )
                  (     0          1          0      )

 cart.    s(48) = (  0.0000000  0.0000000  1.0000000 )
                  ( -1.0000000  0.0000000  0.0000000 )
                  (  0.0000000  1.0000000  0.0000000 )


     point group O_h (m-3m) 
     there are 10 classes
     the character table:

       E     8C3   3C2   6C4   6C2'  i     8S6   3s_h  6S4   6s_d 
A_1g   1.00  1.00  1.00  1.00  1.00  1.00  1.00  1.00  1.00  1.00
A_2g   1.00  1.00  1.00 -1.00 -1.00  1.00  1.00  1.00 -1.00 -1.00
E_g    2.00 -1.00  2.00  0.00  0.00  2.00 -1.00  2.00  0.00  0.00
T_1g   3.00  0.00 -1.00  1.00 -1.00  3.00  0.00 -1.00  1.00 -1.00
T_2g   3.00  0.00 -1.00 -1.00  1.00  3.00  0.00 -1.00 -1.00  1.00
A_1u   1.00  1.00  1.00  1.00  1.00 -1.00 -1.00 -1.00 -1.00 -1.00
A_2u   1.00  1.00  1.00 -1.00 -1.00 -1.00 -1.00 -1.00  1.00  1.00
E_u    2.00 -1.00  2.00  0.00  0.00 -2.00  1.00 -2.00  0.00  0.00
T_1u   3.00  0.00 -1.00  1.00 -1.00 -3.00  0.00  1.00 -1.00  1.00
T_2u   3.00  0.00 -1.00 -1.00  1.00 -3.00  0.00  1.00  1.00 -1.00

     the symmetry operations in each class and the name of the first element:

     E        1
          identity                                               
     8C3     17   19   20   18   24   21   22   23
          120 deg rotation - cart. axis [-1,-1,-1]               
     3C2      2    4    3
          180 deg rotation - cart. axis [0,0,1]                  
     6C4      7    8   15   16   12   11
           90 deg rotation - cart. axis [0,0,-1]                 
     6C2'     5    6   14   13   10    9
          180 deg rotation - cart. axis [1,1,0]                  
     i       25
          inversion                                              
     8S6     41   43   44   42   48   45   46   47
          inv. 120 deg rotation - cart. axis [-1,-1,-1]          
     3s_h    26   28   27
          inv. 180 deg rotation - cart. axis [0,0,1]             
     6S4     31   32   39   40   36   35
          inv.  90 deg rotation - cart. axis [0,0,-1]            
     6s_d    29   30   38   37   34   33
          inv. 180 deg rotation - cart. axis [1,1,0]             

   Cartesian axes

     site n.     atom                  positions (alat units)
         1        Li     tau(   1) = (   0.0000000   0.0000000   0.0000000  )
         2        F      tau(   2) = (  -0.5000000   0.5000000   0.5000000  )

   Crystallographic axes

     site n.     atom                  positions (cryst. coord.)
         1        Li     tau(   1) = (  0.0000000  0.0000000  0.0000000  )
         2        F      tau(   2) = (  0.5000000  0.5000000  0.5000000  )

     number of k points=    16
                       cart. coord. in units 2pi/alat
        k(    1) = (   0.0000000   0.0000000   0.0000000), wk =   0.0092593
        k(    2) = (  -0.1666667   0.1666667  -0.1666667), wk =   0.0740741
        k(    3) = (  -0.3333333   0.3333333  -0.3333333), wk =   0.0740741
        k(    4) = (   0.5000000  -0.5000000   0.5000000), wk =   0.0370370
        k(    5) = (   0.0000000   0.3333333   0.0000000), wk =   0.0555556
        k(    6) = (  -0.1666667   0.5000000  -0.1666667), wk =   0.2222222
        k(    7) = (   0.6666667  -0.3333333   0.6666667), wk =   0.2222222
        k(    8) = (   0.5000000  -0.1666667   0.5000000), wk =   0.2222222
        k(    9) = (   0.3333333   0.0000000   0.3333333), wk =   0.1111111
        k(   10) = (   0.0000000   0.6666667   0.0000000), wk =   0.0555556
        k(   11) = (   0.8333333  -0.1666667   0.8333333), wk =   0.2222222
        k(   12) = (   0.6666667  -0.0000000   0.6666667), wk =   0.1111111
        k(   13) = (   0.0000000  -1.0000000   0.0000000), wk =   0.0277778
        k(   14) = (   0.6666667  -0.3333333   1.0000000), wk =   0.2222222
        k(   15) = (   0.5000000  -0.1666667   0.8333333), wk =   0.2222222
        k(   16) = (  -0.3333333  -1.0000000   0.0000000), wk =   0.1111111

                       cryst. coord.
        k(    1) = (   0.0000000   0.0000000   0.0000000), wk =   0.0092593
        k(    2) = (   0.0000000   0.0000000   0.1666667), wk =   0.0740741
        k(    3) = (   0.0000000   0.0000000   0.3333333), wk =   0.0740741
        k(    4) = (   0.0000000   0.0000000  -0.5000000), wk =   0.0370370
        k(    5) = (   0.0000000   0.1666667   0.1666667), wk =   0.0555556
        k(    6) = (   0.0000000   0.1666667   0.3333333), wk =   0.2222222
        k(    7) = (   0.0000000   0.1666667  -0.5000000), wk =   0.2222222
        k(    8) = (   0.0000000   0.1666667  -0.3333333), wk =   0.2222222
        k(    9) = (   0.0000000   0.1666667  -0.1666667), wk =   0.1111111
        k(   10) = (   0.0000000   0.3333333   0.3333333), wk =   0.0555556
        k(   11) = (   0.0000000   0.3333333  -0.5000000), wk =   0.2222222
        k(   12) = (   0.0000000   0.3333333  -0.3333333), wk =   0.1111111
        k(   13) = (   0.0000000  -0.5000000  -0.5000000), wk =   0.0277778
        k(   14) = (   0.1666667   0.3333333  -0.5000000), wk =   0.2222222
        k(   15) = (   0.1666667   0.3333333  -0.3333333), wk =   0.2222222
        k(   16) = (   0.1666667  -0.5000000  -0.3333333), wk =   0.1111111

     Dense  grid:    10777 G-vectors     FFT dimensions: (  32,  32,  32)

     Dynamical RAM for                 wfc:       0.06 MB

     Dynamical RAM for     wfc (w. buffer):       1.03 MB

     Dynamical RAM for                 EXX:     211.96 MB

     Dynamical RAM for           str. fact:       0.08 MB

     Dynamical RAM for           local pot:       0.00 MB

     Dynamical RAM for          nlocal pot:       0.08 MB

     Dynamical RAM for                qrad:       0.91 MB

     Dynamical RAM for          rho,v,vnew:       0.31 MB

     Dynamical RAM for               rhoin:       0.10 MB

     Dynamical RAM for            rho*nmix:       0.66 MB

     Dynamical RAM for           G-vectors:       0.17 MB

     Dynamical RAM for          h,s,v(r/c):       0.03 MB

     Dynamical RAM for          <psi|beta>:       0.00 MB

     Dynamical RAM for                 psi:       0.12 MB

     Dynamical RAM for                hpsi:       0.12 MB

     Dynamical RAM for      wfcinit/wfcrot:       0.12 MB

     Estimated static dynamical RAM per process >     215.09 MB

     Estimated max dynamical RAM per process >     216.02 MB

     Estimated total dynamical RAM >     864.09 MB
     EXX: ACE will be initialized later

     Initial potential from superposition of free atoms

     starting charge       9.8869, renormalised to      10.0000
     Starting wfcs are random

     total cpu time spent up to now is        0.2 secs

     Self-consistent Calculation

     iteration #  1     ecut=    80.00 Ry     beta= 0.70
     Davidson diagonalization with overlap

---- Real-time Memory Report at c_bands before calling an iterative solver
            66 MiB given to the printing process from OS
             0 MiB allocation reported by mallinfo(arena+hblkhd)
         13930 MiB available memory on the node where the printing process lives
------------------
     ethr =  1.00E-02,  avg # of iterations =  7.1

     Threshold (ethr) on eigenvalues was too large:
     Diagonalizing with lowered threshold

     Davidson diagonalization with overlap

---- Real-time Memory Report at c_bands before calling an iterative solver
            66 MiB given to the printing process from OS
             0 MiB allocation reported by mallinfo(arena+hblkhd)
         13928 MiB available memory on the node where the printing process lives
------------------
     ethr =  6.20E-04,  avg # of iterations =  1.8

     total cpu time spent up to now is        0.3 secs

     total energy              =     -62.26454589 Ry
     estimated scf accuracy    <       0.06473912 Ry

     iteration #  2     ecut=    80.00 Ry     beta= 0.70
     Davidson diagonalization with overlap

---- Real-time Memory Report at c_bands before calling an iterative solver
            67 MiB given to the printing process from OS
             0 MiB allocation reported by mallinfo(arena+hblkhd)
         13924 MiB available memory on the node where the printing process lives
------------------
     ethr =  6.47E-04,  avg # of iterations =  2.0

     total cpu time spent up to now is        0.4 secs

     total energy              =     -62.27996629 Ry
     estimated scf accuracy    <       0.03126266 Ry

     iteration #  3     ecut=    80.00 Ry     beta= 0.70
     Davidson diagonalization with overlap

---- Real-time Memory Report at c_bands before calling an iterative solver
            68 MiB given to the printing process from OS
             0 MiB allocation reported by mallinfo(arena+hblkhd)
         13924 MiB available memory on the node where the printing process lives
------------------
     ethr =  3.13E-04,  avg # of iterations =  1.6

     total cpu time spent up to now is        0.4 secs

     total energy              =     -62.28674044 Ry
     estimated scf accuracy    <       0.00048480 Ry

     iteration #  4     ecut=    80.00 Ry     beta= 0.70
     Davidson diagonalization with overlap

---- Real-time Memory Report at c_bands before calling an iterative solver
            68 MiB given to the printing process from OS
             0 MiB allocation reported by mallinfo(arena+hblkhd)
         13924 MiB available memory on the node where the printing process lives
------------------
     ethr =  4.85E-06,  avg # of iterations =  2.3

     total cpu time spent up to now is        0.5 secs

     total energy              =     -62.28684496 Ry
     estimated scf accuracy    <       0.00000546 Ry

     iteration #  5     ecut=    80.00 Ry     beta= 0.70
     Davidson diagonalization with overlap

---- Real-time Memory Report at c_bands before calling an iterative solver
            68 MiB given to the printing process from OS
             0 MiB allocation reported by mallinfo(arena+hblkhd)
         13924 MiB available memory on the node where the printing process lives
------------------
     ethr =  5.46E-08,  avg # of iterations =  2.0

     total cpu time spent up to now is        0.5 secs

     total energy              =     -62.28684631 Ry
     estimated scf accuracy    <       0.00000025 Ry

     iteration #  6     ecut=    80.00 Ry     beta= 0.70
     Davidson diagonalization with overlap

---- Real-time Memory Report at c_bands before calling an iterative solver
            68 MiB given to the printing process from OS
             0 MiB allocation reported by mallinfo(arena+hblkhd)
         13923 MiB available memory on the node where the printing process lives
------------------
     ethr =  2.54E-09,  avg # of iterations =  2.0

     total cpu time spent up to now is        0.6 secs

     End of self-consistent calculation

          k = 0.0000 0.0000 0.0000 (  1363 PWs)   bands (ev):

   -39.8834 -18.9249   0.9571   0.9571   0.9571  10.1085  24.9991  24.9991
    24.9991  25.4372  25.4372  25.4372

     occupation numbers 
     1.0000   1.0000   1.0000   1.0000   1.0000   0.0000   0.0000   0.0000
     0.0000   0.0000   0.0000   0.0000

          k =-0.1667 0.1667-0.1667 (  1330 PWs)   bands (ev):

   -39.8687 -18.8223   0.2383   0.8978   0.8978  10.8214  20.5940  22.7624
    22.7624  27.0812  27.3397  27.3397

     occupation numbers 
     1.0000   1.0000   1.0000   1.0000   1.0000   0.0000   0.0000   0.0000
     0.0000   0.0000   0.0000   0.0000

          k =-0.3333 0.3333-0.3333 (  1326 PWs)   bands (ev):

   -39.8392 -18.6058  -0.9953   0.7845   0.7845  11.7156  18.0945  20.7155
    20.7155  29.3679  30.1129  30.1129

     occupation numbers 
     1.0000   1.0000   1.0000   1.0000   1.0000   0.0000   0.0000   0.0000
     0.0000   0.0000   0.0000   0.0000

          k = 0.5000-0.5000 0.5000 (  1350 PWs)   bands (ev):

   -39.8245 -18.4912  -1.5491   0.7303   0.7303  11.8183  17.7365  19.9604
    19.9604  31.5775  32.0896  32.0896

     occupation numbers 
     1.0000   1.0000   1.0000   1.0000   1.0000   0.0000   0.0000   0.0000
     0.0000   0.0000   0.0000   0.0000

          k = 0.0000 0.3333 0.0000 (  1327 PWs)   bands (ev):

   -39.8641 -18.7815   0.2662   0.7017   0.7017  11.2087  21.5757  22.2701
    22.3130  22.3130  30.5826  30.5827

     occupation numbers 
     1.0000   1.0000   1.0000   1.0000   1.0000   0.0000   0.0000   0.0000
     0.0000   0.0000   0.0000   0.0000

          k =-0.1667 0.5000-0.1667 (  1330 PWs)   bands (ev):

   -39.8401 -18.5873  -0.7239   0.4813   0.5191  12.4092  18.3156  20.6791
    21.2184  24.4320  32.5762  32.7310

     occupation numbers 
     1.0000   1.0000   1.0000   1.0000   1.0000   0.0000   0.0000   0.0000
     0.0000   0.0000   0.0000   0.0000

          k = 0.6667-0.3333 0.6667 (  1336 PWs)   bands (ev):

   -39.8207 -18.4262  -1.4046   0.1494   0.5279  12.9179  17.1419  20.0479
    20.3115  27.5664  32.8857  33.2952

     occupation numbers 
     1.0000   1.0000   1.0000   1.0000   1.0000   0.0000   0.0000   0.0000
     0.0000   0.0000   0.0000   0.0000

          k = 0.5000-0.1667 0.5000 (  1338 PWs)   bands (ev):

   -39.8253 -18.4721  -1.1755   0.0220   0.7178  12.7452  17.0862  20.3739
    20.3932  30.0096  30.5164  30.8272

     occupation numbers 
     1.0000   1.0000   1.0000   1.0000   1.0000   0.0000   0.0000   0.0000
     0.0000   0.0000   0.0000   0.0000

          k = 0.3333 0.0000 0.3333 (  1341 PWs)   bands (ev):

   -39.8493 -18.6737  -0.3538   0.3623   0.9049  11.7839  18.5546  21.2088
    21.6065  27.4856  27.8749  31.0254

     occupation numbers 
     1.0000   1.0000   1.0000   1.0000   1.0000   0.0000   0.0000   0.0000
     0.0000   0.0000   0.0000   0.0000

          k = 0.0000 0.6667 0.0000 (  1331 PWs)   bands (ev):

   -39.8270 -18.4338  -1.2302   0.2056   0.2056  13.8439  18.5600  19.7212
    21.3580  21.3580  35.2672  36.4795

     occupation numbers 
     1.0000   1.0000   1.0000   1.0000   1.0000   0.0000   0.0000   0.0000
     0.0000   0.0000   0.0000   0.0000

          k = 0.8333-0.1667 0.8333 (  1325 PWs)   bands (ev):

   -39.8131 -18.2926  -1.6407  -0.2254   0.1458  15.0122  16.8860  19.2446
    20.9566  23.1453  34.7727  36.8065

     occupation numbers 
     1.0000   1.0000   1.0000   1.0000   1.0000   0.0000   0.0000   0.0000
     0.0000   0.0000   0.0000   0.0000

          k = 0.6667-0.0000 0.6667 (  1316 PWs)   bands (ev):

   -39.8123 -18.3125  -1.1766  -0.8198   0.3931  14.6459  16.0598  19.9222
    20.4782  26.4140  33.2738  33.6098

     occupation numbers 
     1.0000   1.0000   1.0000   1.0000   1.0000   0.0000   0.0000   0.0000
     0.0000   0.0000   0.0000   0.0000

          k = 0.0000-1.0000 0.0000 (  1338 PWs)   bands (ev):

   -39.8093 -18.2237  -2.0330  -0.0351  -0.0351  15.8071  17.5435  18.5099
    21.2549  21.2549  34.4444  39.4797

     occupation numbers 
     1.0000   1.0000   1.0000   1.0000   1.0000   0.0000   0.0000   0.0000
     0.0000   0.0000   0.0000   0.0000

          k = 0.6667-0.3333 1.0000 (  1329 PWs)   bands (ev):

   -39.8215 -18.4069  -1.1402  -0.2845   0.4418  13.8154  16.9421  19.9089
    20.6608  25.5725  31.8592  35.7146

     occupation numbers 
     1.0000   1.0000   1.0000   1.0000   1.0000   0.0000   0.0000   0.0000
     0.0000   0.0000   0.0000   0.0000

          k = 0.5000-0.1667 0.8333 (  1324 PWs)   bands (ev):

   -39.8123 -18.3126  -1.2450  -0.6985   0.3337  14.5687  16.3871  19.5968
    20.2722  28.3151  29.1235  36.4629

     occupation numbers 
     1.0000   1.0000   1.0000   1.0000   1.0000   0.0000   0.0000   0.0000
     0.0000   0.0000   0.0000   0.0000

          k =-0.3333-1.0000 0.0000 (  1324 PWs)   bands (ev):

   -39.8085 -18.2441  -1.5855  -0.5926   0.1143  15.8841  16.4618  18.4962
    20.5246  25.0135  32.7058  35.0091

     occupation numbers 
     1.0000   1.0000   1.0000   1.0000   1.0000   0.0000   0.0000   0.0000
     0.0000   0.0000   0.0000   0.0000

     highest occupied, lowest unoccupied level (ev):     0.9571   10.1085

!    total energy              =     -62.28684639 Ry
     estimated scf accuracy    <          2.1E-09 Ry

     convergence has been achieved in   6 iterations

     Using ACE for calculation of exact exchange

     EXX grid:    10777 G-vectors     FFT dimensions: (  32,  32,  32)
     ACE projected onto    12 (nbndproj) and applied to    12 (nbnd) bands

     EXX: now go back to refine exchange calculation

     total cpu time spent up to now is       61.5 secs

     Self-consistent Calculation

     iteration #  1     ecut=    80.00 Ry     beta= 0.70
     Davidson diagonalization with overlap

---- Real-time Memory Report at c_bands before calling an iterative solver
           473 MiB given to the printing process from OS
             0 MiB allocation reported by mallinfo(arena+hblkhd)
         12311 MiB available memory on the node where the printing process lives
------------------
     ethr =  2.54E-09,  avg # of iterations =  5.6

     total cpu time spent up to now is       61.7 secs

     total energy              =     -62.33717171 Ry
     estimated scf accuracy    <       0.00169835 Ry

     iteration #  2     ecut=    80.00 Ry     beta= 0.70
     Davidson diagonalization with overlap

---- Real-time Memory Report at c_bands before calling an iterative solver
           473 MiB given to the printing process from OS
             0 MiB allocation reported by mallinfo(arena+hblkhd)
         12310 MiB available memory on the node where the printing process lives
------------------
     ethr =  1.70E-05,  avg # of iterations =  1.9

     total cpu time spent up to now is       61.7 secs

     total energy              =     -62.33750168 Ry
     estimated scf accuracy    <       0.00034441 Ry

     iteration #  3     ecut=    80.00 Ry     beta= 0.70
     Davidson diagonalization with overlap

---- Real-time Memory Report at c_bands before calling an iterative solver
           473 MiB given to the printing process from OS
             0 MiB allocation reported by mallinfo(arena+hblkhd)
         12310 MiB available memory on the node where the printing process lives
------------------
     ethr =  3.44E-06,  avg # of iterations =  2.0

     total cpu time spent up to now is       61.8 secs

     total energy              =     -62.33758557 Ry
     estimated scf accuracy    <       0.00001488 Ry

     iteration #  4     ecut=    80.00 Ry     beta= 0.70
     Davidson diagonalization with overlap

---- Real-time Memory Report at c_bands before calling an iterative solver
           473 MiB given to the printing process from OS
             0 MiB allocation reported by mallinfo(arena+hblkhd)
         12309 MiB available memory on the node where the printing process lives
------------------
     ethr =  1.49E-07,  avg # of iterations =  1.3

     total cpu time spent up to now is       61.8 secs

     total energy              =     -62.33758742 Ry
     estimated scf accuracy    <       0.00000004 Ry

     iteration #  5     ecut=    80.00 Ry     beta= 0.70
     Davidson diagonalization with overlap

---- Real-time Memory Report at c_bands before calling an iterative solver
           473 MiB given to the printing process from OS
             0 MiB allocation reported by mallinfo(arena+hblkhd)
         12309 MiB available memory on the node where the printing process lives
------------------
     ethr =  3.60E-10,  avg # of iterations =  2.0

     total cpu time spent up to now is       61.9 secs

     End of self-consistent calculation

          k = 0.0000 0.0000 0.0000 (  1363 PWs)   bands (ev):

   -47.8367 -27.3169  -3.3932  -3.3932  -3.3932  11.7538  27.5865  27.5865
    27.5865  27.7949  27.7949  27.7949

     occupation numbers 
     1.0000   1.0000   1.0000   1.0000   1.0000   0.0000   0.0000   0.0000
     0.0000   0.0000   0.0000   0.0000

          k =-0.1667 0.1667-0.1667 (  1330 PWs)   bands (ev):

   -47.8193 -27.2138  -4.1994  -3.4646  -3.4646  12.5529  22.7911  25.2418
    25.2418  29.5309  29.6680  29.6680

     occupation numbers 
     1.0000   1.0000   1.0000   1.0000   1.0000   0.0000   0.0000   0.0000
     0.0000   0.0000   0.0000   0.0000

          k =-0.3333 0.3333-0.3333 (  1326 PWs)   bands (ev):

   -47.7851 -26.9946  -5.5977  -3.5980  -3.5980  13.5032  20.4425  23.0594
    23.0594  31.8332  32.6476  32.6476

     occupation numbers 
     1.0000   1.0000   1.0000   1.0000   1.0000   0.0000   0.0000   0.0000
     0.0000   0.0000   0.0000   0.0000

          k = 0.5000-0.5000 0.5000 (  1350 PWs)   bands (ev):

   -47.7677 -26.8806  -6.2302  -3.6626  -3.6626  13.5573  20.2881  22.2516
    22.2516  33.9972  34.9655  34.9655

     occupation numbers 
     1.0000   1.0000   1.0000   1.0000   1.0000   0.0000   0.0000   0.0000
     0.0000   0.0000   0.0000   0.0000

          k = 0.0000 0.3333 0.0000 (  1327 PWs)   bands (ev):

   -47.8138 -27.1725  -4.1555  -3.6878  -3.6878  12.9920  23.4411  24.7202
    24.8513  24.8513  33.1415  33.1415

     occupation numbers 
     1.0000   1.0000   1.0000   1.0000   1.0000   0.0000   0.0000   0.0000
     0.0000   0.0000   0.0000   0.0000

          k =-0.1667 0.5000-0.1667 (  1330 PWs)   bands (ev):

   -47.7858 -26.9759  -5.2747  -3.9323  -3.8971  14.3274  20.4222  23.0291
    23.7381  26.8391  35.2233  35.2738

     occupation numbers 
     1.0000   1.0000   1.0000   1.0000   1.0000   0.0000   0.0000   0.0000
     0.0000   0.0000   0.0000   0.0000

          k = 0.6667-0.3333 0.6667 (  1336 PWs)   bands (ev):

   -47.7631 -26.8146  -6.0551  -4.2964  -3.8907  14.7889  19.5042  22.4417
    22.7295  30.0174  35.4886  36.1302

     occupation numbers 
     1.0000   1.0000   1.0000   1.0000   1.0000   0.0000   0.0000   0.0000
     0.0000   0.0000   0.0000   0.0000

          k = 0.5000-0.1667 0.5000 (  1338 PWs)   bands (ev):

   -47.7686 -26.8604  -5.7983  -4.4413  -3.6760  14.6284  19.3663  22.7463
    22.8733  32.5800  32.9407  33.3930

     occupation numbers 
     1.0000   1.0000   1.0000   1.0000   1.0000   0.0000   0.0000   0.0000
     0.0000   0.0000   0.0000   0.0000

          k = 0.3333 0.0000 0.3333 (  1341 PWs)   bands (ev):

   -47.7966 -27.0638  -4.8645  -4.0685  -3.4618  13.6301  20.6749  23.7102
    24.0291  29.7157  30.3898  33.6062

     occupation numbers 
     1.0000   1.0000   1.0000   1.0000   1.0000   0.0000   0.0000   0.0000
     0.0000   0.0000   0.0000   0.0000

          k = 0.0000 0.6667 0.0000 (  1331 PWs)   bands (ev):

   -47.7704 -26.8193  -5.8148  -4.2508  -4.2508  15.9895  20.2803  22.0138
    24.0529  24.0529  38.6535  39.2613

     occupation numbers 
     1.0000   1.0000   1.0000   1.0000   1.0000   0.0000   0.0000   0.0000
     0.0000   0.0000   0.0000   0.0000

          k = 0.8333-0.1667 0.8333 (  1325 PWs)   bands (ev):

   -47.7539 -26.6785  -6.2768  -4.7318  -4.3197  17.2292  18.9353  21.5338
    23.6246  25.6550  37.8816  39.6426

     occupation numbers 
     1.0000   1.0000   1.0000   1.0000   1.0000   0.0000   0.0000   0.0000
     0.0000   0.0000   0.0000   0.0000

          k = 0.6667-0.0000 0.6667 (  1316 PWs)   bands (ev):

   -47.7533 -26.6983  -5.7631  -5.3960  -4.0411  16.6627  18.3490  22.4066
    22.9990  28.7649  35.8964  36.0415

     occupation numbers 
     1.0000   1.0000   1.0000   1.0000   1.0000   0.0000   0.0000   0.0000
     0.0000   0.0000   0.0000   0.0000

          k = 0.0000-1.0000 0.0000 (  1338 PWs)   bands (ev):

   -47.7493 -26.6092  -6.7065  -4.5240  -4.5240  18.2579  19.2129  20.7236
    24.0447  24.0447  37.6061  42.5099

     occupation numbers 
     1.0000   1.0000   1.0000   1.0000   1.0000   0.0000   0.0000   0.0000
     0.0000   0.0000   0.0000   0.0000

          k = 0.6667-0.3333 1.0000 (  1329 PWs)   bands (ev):

   -47.7639 -26.7943  -5.7358  -4.7869  -3.9892  15.8891  19.0413  22.2618
    23.2515  28.0063  34.5043  38.2984

     occupation numbers 
     1.0000   1.0000   1.0000   1.0000   1.0000   0.0000   0.0000   0.0000
     0.0000   0.0000   0.0000   0.0000

          k = 0.5000-0.1667 0.8333 (  1324 PWs)   bands (ev):

   -47.7531 -26.6993  -5.8603  -5.2332  -4.1160  16.6180  18.6674  22.0349
    22.7559  30.7259  31.6275  39.7224

     occupation numbers 
     1.0000   1.0000   1.0000   1.0000   1.0000   0.0000   0.0000   0.0000
     0.0000   0.0000   0.0000   0.0000

          k =-0.3333-1.0000 0.0000 (  1324 PWs)   bands (ev):

   -47.7485 -26.6303  -6.2137  -5.1298  -4.3667  18.2385  18.5374  20.7847
    23.0955  27.5244  35.2484  38.1675

     occupation numbers 
     1.0000   1.0000   1.0000   1.0000   1.0000   0.0000   0.0000   0.0000
     0.0000   0.0000   0.0000   0.0000

     highest occupied, lowest unoccupied level (ev):    -3.3932   11.7538

!    total energy              =     -62.33758743 Ry
     estimated scf accuracy    <          3.8E-09 Ry

     convergence has been achieved in   5 iterations

     Using ACE for calculation of exact exchange
     ACE projected onto    12 (nbndproj) and applied to    12 (nbnd) bands

     total energy              =     -62.33876341 Ry
     Harris-Foulkes estimate   =     -62.33876341 Ry
     est. exchange err (dexx)  =       0.00117598 Ry
     - averaged Fock potential =      13.12902919 Ry
     + Fock energy (ACE)       =      -6.58368130 Ry

     EXX: now go back to refine exchange calculation

     total cpu time spent up to now is      123.2 secs

     Self-consistent Calculation

     iteration #  1     ecut=    80.00 Ry     beta= 0.70
     Davidson diagonalization with overlap

---- Real-time Memory Report at c_bands before calling an iterative solver
           474 MiB given to the printing process from OS
             0 MiB allocation reported by mallinfo(arena+hblkhd)
         12313 MiB available memory on the node where the printing process lives
------------------
     ethr =  3.60E-10,  avg # of iterations =  4.8

     total cpu time spent up to now is      123.3 secs

     total energy              =     -62.33894219 Ry
     estimated scf accuracy    <       0.00007131 Ry

     iteration #  2     ecut=    80.00 Ry     beta= 0.70
     Davidson diagonalization with overlap

---- Real-time Memory Report at c_bands before calling an iterative solver
           474 MiB given to the printing process from OS
             0 MiB allocation reported by mallinfo(arena+hblkhd)
         12313 MiB available memory on the node where the printing process lives
------------------
     ethr =  7.13E-07,  avg # of iterations =  2.0

     total cpu time spent up to now is      123.4 secs

     total energy              =     -62.33895899 Ry
     estimated scf accuracy    <       0.00001617 Ry

     iteration #  3     ecut=    80.00 Ry     beta= 0.70
     Davidson diagonalization with overlap

---- Real-time Memory Report at c_bands before calling an iterative solver
           474 MiB given to the printing process from OS
             0 MiB allocation reported by mallinfo(arena+hblkhd)
         12312 MiB available memory on the node where the printing process lives
------------------
     ethr =  1.62E-07,  avg # of iterations =  2.0

     total cpu time spent up to now is      123.4 secs

     total energy              =     -62.33896289 Ry
     estimated scf accuracy    <       0.00000042 Ry

     iteration #  4     ecut=    80.00 Ry     beta= 0.70
     Davidson diagonalization with overlap

---- Real-time Memory Report at c_bands before calling an iterative solver
           474 MiB given to the printing process from OS
             0 MiB allocation reported by mallinfo(arena+hblkhd)
         12312 MiB available memory on the node where the printing process lives
------------------
     ethr =  4.18E-09,  avg # of iterations =  1.6

     total cpu time spent up to now is      123.5 secs

     End of self-consistent calculation

          k = 0.0000 0.0000 0.0000 (  1363 PWs)   bands (ev):

   -47.8703 -27.3347  -3.4110  -3.4110  -3.4110  11.8491  27.6251  27.6251
    27.6251  27.8289  27.8289  27.8289

     occupation numbers 
     1.0000   1.0000   1.0000   1.0000   1.0000   0.0000   0.0000   0.0000
     0.0000   0.0000   0.0000   0.0000

          k =-0.1667 0.1667-0.1667 (  1330 PWs)   bands (ev):

   -47.8534 -27.2323  -4.2008  -3.4819  -3.4819  12.6358  22.8406  25.2802
    25.2802  29.5665  29.7018  29.7018

     occupation numbers 
     1.0000   1.0000   1.0000   1.0000   1.0000   0.0000   0.0000   0.0000
     0.0000   0.0000   0.0000   0.0000

          k =-0.3333 0.3333-0.3333 (  1326 PWs)   bands (ev):

   -47.8201 -27.0155  -5.5815  -3.6158  -3.6158  13.5824  20.4924  23.1029
    23.1029  31.8671  32.6798  32.6798

     occupation numbers 
     1.0000   1.0000   1.0000   1.0000   1.0000   0.0000   0.0000   0.0000
     0.0000   0.0000   0.0000   0.0000

          k = 0.5000-0.5000 0.5000 (  1350 PWs)   bands (ev):

   -47.8032 -26.9024  -6.2073  -3.6805  -3.6805  13.6416  20.3343  22.2974
    22.2974  34.0308  35.0028  35.0028

     occupation numbers 
     1.0000   1.0000   1.0000   1.0000   1.0000   0.0000   0.0000   0.0000
     0.0000   0.0000   0.0000   0.0000

          k = 0.0000 0.3333 0.0000 (  1327 PWs)   bands (ev):

   -47.8481 -27.1913  -4.1574  -3.7004  -3.7004  13.0677  23.4933  24.7589
    24.8921  24.8921  33.1699  33.1699

     occupation numbers 
     1.0000   1.0000   1.0000   1.0000   1.0000   0.0000   0.0000   0.0000
     0.0000   0.0000   0.0000   0.0000

          k =-0.1667 0.5000-0.1667 (  1330 PWs)   bands (ev):

   -47.8208 -26.9969  -5.2614  -3.9411  -3.9081  14.3922  20.4775  23.0725
    23.7795  26.8785  35.2513  35.3005

     occupation numbers 
     1.0000   1.0000   1.0000   1.0000   1.0000   0.0000   0.0000   0.0000
     0.0000   0.0000   0.0000   0.0000

          k = 0.6667-0.3333 0.6667 (  1336 PWs)   bands (ev):

   -47.7987 -26.8374  -6.0336  -4.3002  -3.9036  14.8591  19.5542  22.4860
    22.7737  30.0528  35.5159  36.1631

     occupation numbers 
     1.0000   1.0000   1.0000   1.0000   1.0000   0.0000   0.0000   0.0000
     0.0000   0.0000   0.0000   0.0000

          k = 0.5000-0.1667 0.5000 (  1338 PWs)   bands (ev):

   -47.8041 -26.8827  -5.7800  -4.4423  -3.6930  14.6983  19.4181  22.7907
    22.9165  32.6122  32.9714  33.4254

     occupation numbers 
     1.0000   1.0000   1.0000   1.0000   1.0000   0.0000   0.0000   0.0000
     0.0000   0.0000   0.0000   0.0000

          k = 0.3333 0.0000 0.3333 (  1341 PWs)   bands (ev):

   -47.8314 -27.0836  -4.8568  -4.0744  -3.4805  13.7013  20.7294  23.7514
    24.0699  29.7503  30.4241  33.6369

     occupation numbers 
     1.0000   1.0000   1.0000   1.0000   1.0000   0.0000   0.0000   0.0000
     0.0000   0.0000   0.0000   0.0000

          k = 0.0000 0.6667 0.0000 (  1331 PWs)   bands (ev):

   -47.8057 -26.8428  -5.7927  -4.2564  -4.2564  16.0402  20.3433  22.0596
    24.0943  24.0943  38.6781  39.2771

     occupation numbers 
     1.0000   1.0000   1.0000   1.0000   1.0000   0.0000   0.0000   0.0000
     0.0000   0.0000   0.0000   0.0000

          k = 0.8333-0.1667 0.8333 (  1325 PWs)   bands (ev):

   -47.7897 -26.7035  -6.2495  -4.7291  -4.3251  17.2803  18.9935  21.5804
    23.6668  25.6957  37.8966  39.6630

     occupation numbers 
     1.0000   1.0000   1.0000   1.0000   1.0000   0.0000   0.0000   0.0000
     0.0000   0.0000   0.0000   0.0000

          k = 0.6667-0.0000 0.6667 (  1316 PWs)   bands (ev):

   -47.7891 -26.7233  -5.7437  -5.3838  -4.0522  16.7243  18.3994  22.4502
    23.0424  28.8006  35.9239  36.0686

     occupation numbers 
     1.0000   1.0000   1.0000   1.0000   1.0000   0.0000   0.0000   0.0000
     0.0000   0.0000   0.0000   0.0000

          k = 0.0000-1.0000 0.0000 (  1338 PWs)   bands (ev):

   -47.7852 -26.6352  -6.6728  -4.5258  -4.5258  18.3015  19.2799  20.7717
    24.0862  24.0862  37.6223  42.5179

     occupation numbers 
     1.0000   1.0000   1.0000   1.0000   1.0000   0.0000   0.0000   0.0000
     0.0000   0.0000   0.0000   0.0000

          k = 0.6667-0.3333 1.0000 (  1329 PWs)   bands (ev):

   -47.7995 -26.8175  -5.7166  -4.7826  -3.9991  15.9453  19.0984  22.3069
    23.2937  28.0440  34.5326  38.3231

     occupation numbers 
     1.0000   1.0000   1.0000   1.0000   1.0000   0.0000   0.0000   0.0000
     0.0000   0.0000   0.0000   0.0000

          k = 0.5000-0.1667 0.8333 (  1324 PWs)   bands (ev):

   -47.7890 -26.7239  -5.8408  -5.2217  -4.1248  16.6771  18.7190  22.0804
    22.7986  30.7585  31.6606  39.7408

     occupation numbers 
     1.0000   1.0000   1.0000   1.0000   1.0000   0.0000   0.0000   0.0000
     0.0000   0.0000   0.0000   0.0000

          k =-0.3333-1.0000 0.0000 (  1324 PWs)   bands (ev):

   -47.7844 -26.6558  -6.1874  -5.1203  -4.3715  18.2860  18.5957  20.8325
    23.1375  27.5628  35.2763  38.1827

     occupation numbers 
     1.0000   1.0000   1.0000   1.0000   1.0000   0.0000   0.0000   0.0000
     0.0000   0.0000   0.0000   0.0000

     highest occupied, lowest unoccupied level (ev):    -3.4110   11.8491

!    total energy              =     -62.33896294 Ry
     estimated scf accuracy    <          2.2E-09 Ry

     convergence has been achieved in   4 iterations

     Using ACE for calculation of exact exchange
     ACE projected onto    12 (nbndproj) and applied to    12 (nbnd) bands

     total energy              =     -62.33899829 Ry
     Harris-Foulkes estimate   =     -62.33899829 Ry
     est. exchange err (dexx)  =       0.00003535 Ry
     - averaged Fock potential =      13.17450129 Ry
     + Fock energy (ACE)       =      -6.59085534 Ry

     EXX: now go back to refine exchange calculation

     total cpu time spent up to now is      184.8 secs

     Self-consistent Calculation

     iteration #  1     ecut=    80.00 Ry     beta= 0.70
     Davidson diagonalization with overlap

---- Real-time Memory Report at c_bands before calling an iterative solver
           474 MiB given to the printing process from OS
             0 MiB allocation reported by mallinfo(arena+hblkhd)
         12312 MiB available memory on the node where the printing process lives
------------------
     ethr =  4.18E-09,  avg # of iterations =  3.0

     total cpu time spent up to now is      184.8 secs

     total energy              =     -62.33900371 Ry
     estimated scf accuracy    <       0.00000304 Ry

     iteration #  2     ecut=    80.00 Ry     beta= 0.70
     Davidson diagonalization with overlap

---- Real-time Memory Report at c_bands before calling an iterative solver
           474 MiB given to the printing process from OS
             0 MiB allocation reported by mallinfo(arena+hblkhd)
         12312 MiB available memory on the node where the printing process lives
------------------
     ethr =  3.04E-08,  avg # of iterations =  2.0

     total cpu time spent up to now is      184.9 secs

     total energy              =     -62.33900451 Ry
     estimated scf accuracy    <       0.00000075 Ry

     iteration #  3     ecut=    80.00 Ry     beta= 0.70
     Davidson diagonalization with overlap

---- Real-time Memory Report at c_bands before calling an iterative solver
           474 MiB given to the printing process from OS
             0 MiB allocation reported by mallinfo(arena+hblkhd)
         12311 MiB available memory on the node where the printing process lives
------------------
     ethr =  7.46E-09,  avg # of iterations =  1.9

     total cpu time spent up to now is      184.9 secs

     total energy              =     -62.33900469 Ry
     estimated scf accuracy    <       0.00000001 Ry

     iteration #  4     ecut=    80.00 Ry     beta= 0.70
     Davidson diagonalization with overlap

---- Real-time Memory Report at c_bands before calling an iterative solver
           474 MiB given to the printing process from OS
             0 MiB allocation reported by mallinfo(arena+hblkhd)
         12310 MiB available memory on the node where the printing process lives
------------------
     ethr =  1.34E-10,  avg # of iterations =  1.7

     total cpu time spent up to now is      185.0 secs

     End of self-consistent calculation

          k = 0.0000 0.0000 0.0000 (  1363 PWs)   bands (ev):

   -47.8765 -27.3338  -3.4138  -3.4138  -3.4138  11.8683  27.6329  27.6329
    27.6329  27.8349  27.8349  27.8349

     occupation numbers 
     1.0000   1.0000   1.0000   1.0000   1.0000   0.0000   0.0000   0.0000
     0.0000   0.0000   0.0000   0.0000

          k =-0.1667 0.1667-0.1667 (  1330 PWs)   bands (ev):

   -47.8598 -27.2314  -4.2004  -3.4846  -3.4846  12.6524  22.8502  25.2873
    25.2873  29.5736  29.7085  29.7085

     occupation numbers 
     1.0000   1.0000   1.0000   1.0000   1.0000   0.0000   0.0000   0.0000
     0.0000   0.0000   0.0000   0.0000

          k =-0.3333 0.3333-0.3333 (  1326 PWs)   bands (ev):

   -47.8265 -27.0152  -5.5775  -3.6184  -3.6184  13.5979  20.5020  23.1108
    23.1108  31.8738  32.6864  32.6864

     occupation numbers 
     1.0000   1.0000   1.0000   1.0000   1.0000   0.0000   0.0000   0.0000
     0.0000   0.0000   0.0000   0.0000

          k = 0.5000-0.5000 0.5000 (  1350 PWs)   bands (ev):

   -47.8098 -26.9023  -6.2020  -3.6831  -3.6831  13.6580  20.3429  22.3056
    22.3056  34.0374  35.0104  35.0104

     occupation numbers 
     1.0000   1.0000   1.0000   1.0000   1.0000   0.0000   0.0000   0.0000
     0.0000   0.0000   0.0000   0.0000

          k = 0.0000 0.3333 0.0000 (  1327 PWs)   bands (ev):

   -47.8544 -27.1905  -4.1570  -3.7024  -3.7024  13.0828  23.5039  24.7659
    24.8997  24.8997  33.1754  33.1754

     occupation numbers 
     1.0000   1.0000   1.0000   1.0000   1.0000   0.0000   0.0000   0.0000
     0.0000   0.0000   0.0000   0.0000

          k =-0.1667 0.5000-0.1667 (  1330 PWs)   bands (ev):

   -47.8272 -26.9966  -5.2579  -3.9423  -3.9096  14.4049  20.4883  23.0803
    23.7872  26.8862  35.2570  35.3062

     occupation numbers 
     1.0000   1.0000   1.0000   1.0000   1.0000   0.0000   0.0000   0.0000
     0.0000   0.0000   0.0000   0.0000

          k = 0.6667-0.3333 0.6667 (  1336 PWs)   bands (ev):

   -47.8053 -26.8374  -6.0287  -4.3002  -3.9054  14.8727  19.5636  22.4941
    22.7816  30.0600  35.5219  36.1700

     occupation numbers 
     1.0000   1.0000   1.0000   1.0000   1.0000   0.0000   0.0000   0.0000
     0.0000   0.0000   0.0000   0.0000

          k = 0.5000-0.1667 0.5000 (  1338 PWs)   bands (ev):

   -47.8106 -26.8826  -5.7757  -4.4418  -3.6955  14.7118  19.4280  22.7986
    22.9244  32.6187  32.9779  33.4320

     occupation numbers 
     1.0000   1.0000   1.0000   1.0000   1.0000   0.0000   0.0000   0.0000
     0.0000   0.0000   0.0000   0.0000

          k = 0.3333 0.0000 0.3333 (  1341 PWs)   bands (ev):

   -47.8378 -27.0831  -4.8544  -4.0751  -3.4834  13.7153  20.7400  23.7592
    24.0771  29.7574  30.4308  33.6431

     occupation numbers 
     1.0000   1.0000   1.0000   1.0000   1.0000   0.0000   0.0000   0.0000
     0.0000   0.0000   0.0000   0.0000

          k = 0.0000 0.6667 0.0000 (  1331 PWs)   bands (ev):

   -47.8123 -26.8428  -5.7874  -4.2569  -4.2569  16.0499  20.3561  22.0681
    24.1018  24.1018  38.6832  39.2804

     occupation numbers 
     1.0000   1.0000   1.0000   1.0000   1.0000   0.0000   0.0000   0.0000
     0.0000   0.0000   0.0000   0.0000

          k = 0.8333-0.1667 0.8333 (  1325 PWs)   bands (ev):

   -47.7963 -26.7039  -6.2433  -4.7281  -4.3256  17.2899  19.0047  21.5893
    23.6743  25.7034  37.9006  39.6677

     occupation numbers 
     1.0000   1.0000   1.0000   1.0000   1.0000   0.0000   0.0000   0.0000
     0.0000   0.0000   0.0000   0.0000

          k = 0.6667-0.0000 0.6667 (  1316 PWs)   bands (ev):

   -47.7957 -26.7236  -5.7393  -5.3807  -4.0537  16.7361  18.4088  22.4584
    23.0501  28.8079  35.9293  36.0742

     occupation numbers 
     1.0000   1.0000   1.0000   1.0000   1.0000   0.0000   0.0000   0.0000
     0.0000   0.0000   0.0000   0.0000

          k = 0.0000-1.0000 0.0000 (  1338 PWs)   bands (ev):

   -47.7918 -26.6357  -6.6656  -4.5257  -4.5257  18.3093  19.2935  20.7811
    24.0936  24.0936  37.6262  42.5196

     occupation numbers 
     1.0000   1.0000   1.0000   1.0000   1.0000   0.0000   0.0000   0.0000
     0.0000   0.0000   0.0000   0.0000

          k = 0.6667-0.3333 1.0000 (  1329 PWs)   bands (ev):

   -47.8061 -26.8175  -5.7120  -4.7812  -4.0004  15.9561  19.1095  22.3151
    23.3015  28.0513  34.5387  38.3282

     occupation numbers 
     1.0000   1.0000   1.0000   1.0000   1.0000   0.0000   0.0000   0.0000
     0.0000   0.0000   0.0000   0.0000

          k = 0.5000-0.1667 0.8333 (  1324 PWs)   bands (ev):

   -47.7956 -26.7242  -5.8363  -5.2188  -4.1258  16.6884  18.7286  22.0887
    22.8066  30.7652  31.6671  39.7447

     occupation numbers 
     1.0000   1.0000   1.0000   1.0000   1.0000   0.0000   0.0000   0.0000
     0.0000   0.0000   0.0000   0.0000

          k =-0.3333-1.0000 0.0000 (  1324 PWs)   bands (ev):

   -47.7910 -26.6563  -6.1816  -5.1180  -4.3718  18.2947  18.6069  20.8417
    23.1452  27.5701  35.2820  38.1863

     occupation numbers 
     1.0000   1.0000   1.0000   1.0000   1.0000   0.0000   0.0000   0.0000
     0.0000   0.0000   0.0000   0.0000

     highest occupied, lowest unoccupied level (ev):    -3.4138   11.8683

!    total energy              =     -62.33900469 Ry
     estimated scf accuracy    <          1.2E-10 Ry

     convergence has been achieved in   4 iterations

     Using ACE for calculation of exact exchange
     ACE projected onto    12 (nbndproj) and applied to    12 (nbnd) bands

     total energy              =     -62.33900588 Ry
     Harris-Foulkes estimate   =     -62.33900588 Ry
     est. exchange err (dexx)  =       0.00000119 Ry
     - averaged Fock potential =      13.18311058 Ry
     + Fock energy (ACE)       =      -6.59225644 Ry

     EXX: now go back to refine exchange calculation

     total cpu time spent up to now is      246.3 secs

     Self-consistent Calculation

     iteration #  1     ecut=    80.00 Ry     beta= 0.70
     Davidson diagonalization with overlap

---- Real-time Memory Report at c_bands before calling an iterative solver
           474 MiB given to the printing process from OS
             0 MiB allocation reported by mallinfo(arena+hblkhd)
         12310 MiB available memory on the node where the printing process lives
------------------
     ethr =  1.34E-10,  avg # of iterations =  2.9

     total cpu time spent up to now is      246.4 secs

     total energy              =     -62.33900606 Ry
     estimated scf accuracy    <       0.00000013 Ry

     iteration #  2     ecut=    80.00 Ry     beta= 0.70
     Davidson diagonalization with overlap

---- Real-time Memory Report at c_bands before calling an iterative solver
           474 MiB given to the printing process from OS
             0 MiB allocation reported by mallinfo(arena+hblkhd)
         12309 MiB available memory on the node where the printing process lives
------------------
     ethr =  1.30E-09,  avg # of iterations =  2.0

     total cpu time spent up to now is      246.4 secs

     total energy              =     -62.33900610 Ry
     estimated scf accuracy    <       0.00000003 Ry

     iteration #  3     ecut=    80.00 Ry     beta= 0.70
     Davidson diagonalization with overlap

---- Real-time Memory Report at c_bands before calling an iterative solver
           474 MiB given to the printing process from OS
             0 MiB allocation reported by mallinfo(arena+hblkhd)
         12310 MiB available memory on the node where the printing process lives
------------------
     ethr =  3.35E-10,  avg # of iterations =  1.9

     total cpu time spent up to now is      246.5 secs

     End of self-consistent calculation

          k = 0.0000 0.0000 0.0000 (  1363 PWs)   bands (ev):

   -47.8776 -27.3332  -3.4145  -3.4145  -3.4145  11.8721  27.6344  27.6344
    27.6344  27.8359  27.8359  27.8359

     occupation numbers 
     1.0000   1.0000   1.0000   1.0000   1.0000   0.0000   0.0000   0.0000
     0.0000   0.0000   0.0000   0.0000

          k =-0.1667 0.1667-0.1667 (  1330 PWs)   bands (ev):

   -47.8609 -27.2309  -4.2004  -3.4852  -3.4852  12.6556  22.8520  25.2886
    25.2886  29.5749  29.7097  29.7097

     occupation numbers 
     1.0000   1.0000   1.0000   1.0000   1.0000   0.0000   0.0000   0.0000
     0.0000   0.0000   0.0000   0.0000

          k =-0.3333 0.3333-0.3333 (  1326 PWs)   bands (ev):

   -47.8277 -27.0147  -5.5768  -3.6191  -3.6190  13.6009  20.5037  23.1122
    23.1122  31.8750  32.6877  32.6877

     occupation numbers 
     1.0000   1.0000   1.0000   1.0000   1.0000   0.0000   0.0000   0.0000
     0.0000   0.0000   0.0000   0.0000

          k = 0.5000-0.5000 0.5000 (  1350 PWs)   bands (ev):

   -47.8110 -26.9018  -6.2011  -3.6837  -3.6837  13.6612  20.3444  22.3071
    22.3071  34.0386  35.0118  35.0118

     occupation numbers 
     1.0000   1.0000   1.0000   1.0000   1.0000   0.0000   0.0000   0.0000
     0.0000   0.0000   0.0000   0.0000

          k = 0.0000 0.3333 0.0000 (  1327 PWs)   bands (ev):

   -47.8556 -27.1900  -4.1570  -3.7029  -3.7029  13.0858  23.5060  24.7671
    24.9010  24.9010  33.1764  33.1764

     occupation numbers 
     1.0000   1.0000   1.0000   1.0000   1.0000   0.0000   0.0000   0.0000
     0.0000   0.0000   0.0000   0.0000

          k =-0.1667 0.5000-0.1667 (  1330 PWs)   bands (ev):

   -47.8284 -26.9961  -5.2573  -3.9426  -3.9101  14.4074  20.4903  23.0817
    23.7885  26.8876  35.2580  35.3072

     occupation numbers 
     1.0000   1.0000   1.0000   1.0000   1.0000   0.0000   0.0000   0.0000
     0.0000   0.0000   0.0000   0.0000

          k = 0.6667-0.3333 0.6667 (  1336 PWs)   bands (ev):

   -47.8065 -26.8369  -6.0278  -4.3003  -3.9059  14.8753  19.5652  22.4956
    22.7830  30.0613  35.5230  36.1712

     occupation numbers 
     1.0000   1.0000   1.0000   1.0000   1.0000   0.0000   0.0000   0.0000
     0.0000   0.0000   0.0000   0.0000

          k = 0.5000-0.1667 0.5000 (  1338 PWs)   bands (ev):

   -47.8118 -26.8822  -5.7749  -4.4419  -3.6961  14.7144  19.4297  22.8000
    22.9258  32.6199  32.9791  33.4333

     occupation numbers 
     1.0000   1.0000   1.0000   1.0000   1.0000   0.0000   0.0000   0.0000
     0.0000   0.0000   0.0000   0.0000

          k = 0.3333 0.0000 0.3333 (  1341 PWs)   bands (ev):

   -47.8390 -27.0826  -4.8540  -4.0754  -3.4840  13.7181  20.7420  23.7605
    24.0784  29.7587  30.4320  33.6442

     occupation numbers 
     1.0000   1.0000   1.0000   1.0000   1.0000   0.0000   0.0000   0.0000
     0.0000   0.0000   0.0000   0.0000

          k = 0.0000 0.6667 0.0000 (  1331 PWs)   bands (ev):

   -47.8134 -26.8424  -5.7865  -4.2572  -4.2572  16.0517  20.3585  22.0696
    24.1031  24.1031  38.6842  39.2811

     occupation numbers 
     1.0000   1.0000   1.0000   1.0000   1.0000   0.0000   0.0000   0.0000
     0.0000   0.0000   0.0000   0.0000

          k = 0.8333-0.1667 0.8333 (  1325 PWs)   bands (ev):

   -47.7975 -26.7035  -6.2423  -4.7281  -4.3258  17.2917  19.0068  21.5909
    23.6756  25.7048  37.9014  39.6686

     occupation numbers 
     1.0000   1.0000   1.0000   1.0000   1.0000   0.0000   0.0000   0.0000
     0.0000   0.0000   0.0000   0.0000

          k = 0.6667-0.0000 0.6667 (  1316 PWs)   bands (ev):

   -47.7969 -26.7232  -5.7386  -5.3802  -4.0541  16.7384  18.4104  22.4599
    23.0514  28.8093  35.9303  36.0752

     occupation numbers 
     1.0000   1.0000   1.0000   1.0000   1.0000   0.0000   0.0000   0.0000
     0.0000   0.0000   0.0000   0.0000

          k = 0.0000-1.0000 0.0000 (  1338 PWs)   bands (ev):

   -47.7930 -26.6353  -6.6643  -4.5259  -4.5259  18.3106  19.2961  20.7829
    24.0948  24.0948  37.6270  42.5199

     occupation numbers 
     1.0000   1.0000   1.0000   1.0000   1.0000   0.0000   0.0000   0.0000
     0.0000   0.0000   0.0000   0.0000

          k = 0.6667-0.3333 1.0000 (  1329 PWs)   bands (ev):

   -47.8073 -26.8171  -5.7112  -4.7811  -4.0008  15.9581  19.1115  22.3166
    23.3028  28.0526  34.5399  38.3291

     occupation numbers 
     1.0000   1.0000   1.0000   1.0000   1.0000   0.0000   0.0000   0.0000
     0.0000   0.0000   0.0000   0.0000

          k = 0.5000-0.1667 0.8333 (  1324 PWs)   bands (ev):

   -47.7968 -26.7238  -5.8355  -5.2183  -4.1262  16.6905  18.7303  22.0902
    22.8080  30.7665  31.6683  39.7455

     occupation numbers 
     1.0000   1.0000   1.0000   1.0000   1.0000   0.0000   0.0000   0.0000
     0.0000   0.0000   0.0000   0.0000

          k =-0.3333-1.0000 0.0000 (  1324 PWs)   bands (ev):

   -47.7922 -26.6560  -6.1806  -5.1177  -4.3720  18.2962  18.6090  20.8434
    23.1466  27.5714  35.2830  38.1870

     occupation numbers 
     1.0000   1.0000   1.0000   1.0000   1.0000   0.0000   0.0000   0.0000
     0.0000   0.0000   0.0000   0.0000

     highest occupied, lowest unoccupied level (ev):    -3.4145   11.8721

!    total energy              =     -62.33900611 Ry
     estimated scf accuracy    <          4.5E-10 Ry

     convergence has been achieved in   3 iterations

     Using ACE for calculation of exact exchange
     ACE projected onto    12 (nbndproj) and applied to    12 (nbnd) bands

     total energy              =     -62.33900615 Ry
     Harris-Foulkes estimate   =     -62.33900615 Ry
     est. exchange err (dexx)  =       0.00000004 Ry
     - averaged Fock potential =      13.18479405 Ry
     + Fock energy (ACE)       =      -6.59253766 Ry

     EXX: now go back to refine exchange calculation

     total cpu time spent up to now is      307.2 secs

     Self-consistent Calculation

     iteration #  1     ecut=    80.00 Ry     beta= 0.70
     Davidson diagonalization with overlap

---- Real-time Memory Report at c_bands before calling an iterative solver
           474 MiB given to the printing process from OS
             0 MiB allocation reported by mallinfo(arena+hblkhd)
         12312 MiB available memory on the node where the printing process lives
------------------
     ethr =  3.35E-10,  avg # of iterations =  2.0

     total cpu time spent up to now is      307.3 secs

     End of self-consistent calculation

          k = 0.0000 0.0000 0.0000 (  1363 PWs)   bands (ev):

   -47.8778 -27.3333  -3.4150  -3.4150  -3.4150  11.8728  27.6346  27.6346
    27.6346  27.8361  27.8361  27.8361

     occupation numbers 
     1.0000   1.0000   1.0000   1.0000   1.0000   0.0000   0.0000   0.0000
     0.0000   0.0000   0.0000   0.0000

          k =-0.1667 0.1667-0.1667 (  1330 PWs)   bands (ev):

   -47.8611 -27.2310  -4.2008  -3.4857  -3.4857  12.6562  22.8523  25.2888
    25.2888  29.5752  29.7099  29.7099

     occupation numbers 
     1.0000   1.0000   1.0000   1.0000   1.0000   0.0000   0.0000   0.0000
     0.0000   0.0000   0.0000   0.0000

          k =-0.3333 0.3333-0.3333 (  1326 PWs)   bands (ev):

   -47.8279 -27.0148  -5.5770  -3.6195  -3.6195  13.6015  20.5040  23.1125
    23.1125  31.8753  32.6879  32.6879

     occupation numbers 
     1.0000   1.0000   1.0000   1.0000   1.0000   0.0000   0.0000   0.0000
     0.0000   0.0000   0.0000   0.0000

          k = 0.5000-0.5000 0.5000 (  1350 PWs)   bands (ev):

   -47.8111 -26.9020  -6.2012  -3.6841  -3.6841  13.6618  20.3446  22.3074
    22.3074  34.0388  35.0120  35.0120

     occupation numbers 
     1.0000   1.0000   1.0000   1.0000   1.0000   0.0000   0.0000   0.0000
     0.0000   0.0000   0.0000   0.0000

          k = 0.0000 0.3333 0.0000 (  1327 PWs)   bands (ev):

   -47.8557 -27.1901  -4.1573  -3.7033  -3.7033  13.0863  23.5064  24.7674
    24.9013  24.9013  33.1766  33.1766

     occupation numbers 
     1.0000   1.0000   1.0000   1.0000   1.0000   0.0000   0.0000   0.0000
     0.0000   0.0000   0.0000   0.0000

          k =-0.1667 0.5000-0.1667 (  1330 PWs)   bands (ev):

   -47.8286 -26.9963  -5.2575  -3.9430  -3.9105  14.4078  20.4906  23.0820
    23.7888  26.8879  35.2582  35.3074

     occupation numbers 
     1.0000   1.0000   1.0000   1.0000   1.0000   0.0000   0.0000   0.0000
     0.0000   0.0000   0.0000   0.0000

          k = 0.6667-0.3333 0.6667 (  1336 PWs)   bands (ev):

   -47.8066 -26.8371  -6.0279  -4.3006  -3.9063  14.8758  19.5654  22.4958
    22.7833  30.0615  35.5233  36.1714

     occupation numbers 
     1.0000   1.0000   1.0000   1.0000   1.0000   0.0000   0.0000   0.0000
     0.0000   0.0000   0.0000   0.0000

          k = 0.5000-0.1667 0.5000 (  1338 PWs)   bands (ev):

   -47.8120 -26.8824  -5.7750  -4.4422  -3.6966  14.7149  19.4300  22.8002
    22.9261  32.6201  32.9793  33.4335

     occupation numbers 
     1.0000   1.0000   1.0000   1.0000   1.0000   0.0000   0.0000   0.0000
     0.0000   0.0000   0.0000   0.0000

          k = 0.3333 0.0000 0.3333 (  1341 PWs)   bands (ev):

   -47.8391 -27.0827  -4.8542  -4.0757  -3.4845  13.7185  20.7423  23.7608
    24.0786  29.7590  30.4322  33.6444

     occupation numbers 
     1.0000   1.0000   1.0000   1.0000   1.0000   0.0000   0.0000   0.0000
     0.0000   0.0000   0.0000   0.0000

          k = 0.0000 0.6667 0.0000 (  1331 PWs)   bands (ev):

   -47.8136 -26.8426  -5.7866  -4.2576  -4.2576  16.0519  20.3590  22.0699
    24.1033  24.1033  38.6843  39.2811

     occupation numbers 
     1.0000   1.0000   1.0000   1.0000   1.0000   0.0000   0.0000   0.0000
     0.0000   0.0000   0.0000   0.0000

          k = 0.8333-0.1667 0.8333 (  1325 PWs)   bands (ev):

   -47.7977 -26.7037  -6.2423  -4.7283  -4.3262  17.2919  19.0071  21.5912
    23.6758  25.7051  37.9016  39.6687

     occupation numbers 
     1.0000   1.0000   1.0000   1.0000   1.0000   0.0000   0.0000   0.0000
     0.0000   0.0000   0.0000   0.0000

          k = 0.6667-0.0000 0.6667 (  1316 PWs)   bands (ev):

   -47.7970 -26.7235  -5.7387  -5.3804  -4.0545  16.7387  18.4106  22.4601
    23.0516  28.8096  35.9305  36.0754

     occupation numbers 
     1.0000   1.0000   1.0000   1.0000   1.0000   0.0000   0.0000   0.0000
     0.0000   0.0000   0.0000   0.0000

          k = 0.0000-1.0000 0.0000 (  1338 PWs)   bands (ev):

   -47.7931 -26.6356  -6.6643  -4.5262  -4.5262  18.3107  19.2966  20.7833
    24.0950  24.0950  37.6271  42.5200

     occupation numbers 
     1.0000   1.0000   1.0000   1.0000   1.0000   0.0000   0.0000   0.0000
     0.0000   0.0000   0.0000   0.0000

          k = 0.6667-0.3333 1.0000 (  1329 PWs)   bands (ev):

   -47.8074 -26.8173  -5.7113  -4.7814  -4.0012  15.9584  19.1118  22.3169
    23.3030  28.0529  34.5401  38.3293

     occupation numbers 
     1.0000   1.0000   1.0000   1.0000   1.0000   0.0000   0.0000   0.0000
     0.0000   0.0000   0.0000   0.0000

          k = 0.5000-0.1667 0.8333 (  1324 PWs)   bands (ev):

   -47.7969 -26.7240  -5.8357  -5.2185  -4.1266  16.6909  18.7306  22.0904
    22.8082  30.7667  31.6686  39.7456

     occupation numbers 
     1.0000   1.0000   1.0000   1.0000   1.0000   0.0000   0.0000   0.0000
     0.0000   0.0000   0.0000   0.0000

          k =-0.3333-1.0000 0.0000 (  1324 PWs)   bands (ev):

   -47.7924 -26.6562  -6.1807  -5.1179  -4.3724  18.2964  18.6093  20.8437
    23.1468  27.5717  35.2832  38.1871

     occupation numbers 
     1.0000   1.0000   1.0000   1.0000   1.0000   0.0000   0.0000   0.0000
     0.0000   0.0000   0.0000   0.0000

     highest occupied, lowest unoccupied level (ev):    -3.4150   11.8728

!    total energy              =     -62.33900616 Ry
     estimated scf accuracy    <          4.7E-09 Ry

     convergence has been achieved in   1 iterations

     Using ACE for calculation of exact exchange
     ACE projected onto    12 (nbndproj) and applied to    12 (nbnd) bands

!!   total energy              =     -62.33900616 Ry
     Harris-Foulkes estimate   =     -62.33900616 Ry
     est. exchange err (dexx)  =          2.6E-09 Ry
     - averaged Fock potential =      13.18516315 Ry
     + Fock energy (ACE)       =      -6.59262549 Ry

     EXX self-consistency reached

     Writing all to output data dir ./out_qc/lifqc.save/ :
     XML data file, charge density, pseudopotentials, collected wavefunctions

     init_run     :      0.14s CPU      0.14s WALL (       1 calls)
     electrons    :      1.32s CPU      1.42s WALL (       6 calls)

     Called by init_run:
     aceinit0     :      0.00s CPU      0.00s WALL (       1 calls)
     wfcinit      :      0.03s CPU      0.03s WALL (       1 calls)
     wfcinit:wfcr :      0.02s CPU      0.02s WALL (      16 calls)
     potinit      :      0.01s CPU      0.01s WALL (       1 calls)
     hinit0       :      0.10s CPU      0.10s WALL (       1 calls)

     Called by electrons:
     c_bands      :      1.04s CPU      1.13s WALL (      24 calls)
     sum_band     :      0.18s CPU      0.19s WALL (      24 calls)
     v_of_rho     :      0.09s CPU      0.10s WALL (      25 calls)
     v_h          :      0.00s CPU      0.00s WALL (      25 calls)
     v_xc         :      0.09s CPU      0.09s WALL (      25 calls)
     mix_rho      :      0.00s CPU      0.00s WALL (      24 calls)

     Called by c_bands:
     init_us_2    :      0.03s CPU      0.03s WALL (     784 calls)
     cegterg      :      1.01s CPU      1.09s WALL (     384 calls)

     Called by sum_band:
     sum_band:wei :      0.00s CPU      0.00s WALL (      24 calls)
     sum_band:loo :      0.17s CPU      0.18s WALL (      24 calls)
     sum_band:buf :      0.00s CPU      0.00s WALL (     384 calls)
     sum_band:ini :      0.01s CPU      0.01s WALL (     384 calls)

     Called by *egterg:
     cdiaghg      :      0.09s CPU      0.10s WALL (    1238 calls)
     cegterg:over :      0.04s CPU      0.04s WALL (     950 calls)
     cegterg:upda :      0.01s CPU      0.01s WALL (     950 calls)
     cegterg:last :      0.02s CPU      0.02s WALL (     844 calls)
     h_psi        :      0.82s CPU      0.88s WALL (    1350 calls)
     g_psi        :      0.01s CPU      0.01s WALL (     950 calls)

     Called by h_psi:
     h_psi:calbec :      0.03s CPU      0.03s WALL (    1350 calls)
     vloc_psi     :      0.75s CPU      0.81s WALL (    1350 calls)
                                        0.00s GPU  (    1350 calls)
     add_vuspsi   :      0.01s CPU      0.01s WALL (    1350 calls)

     General routines
     calbec       :      0.06s CPU      0.06s WALL (    2720 calls)
     fft          :      0.10s CPU      0.10s WALL (     243 calls)
     ffts         :      0.00s CPU      0.00s WALL (      24 calls)
     fftw         :      0.80s CPU      0.86s WALL (   28718 calls)
     fftc         :    228.69s CPU    266.36s WALL ( 5971968 calls)
     fftcw        :      0.10s CPU      0.12s WALL (    3456 calls)

     Parallel routines

     EXX routines
     exx_grid     :      0.00s CPU      0.00s WALL (       1 calls)
     exxinit      :      1.63s CPU      2.08s WALL (       6 calls)
     vexx         :    313.56s CPU    365.02s WALL (      96 calls)
     matcalc      :      0.03s CPU      0.03s WALL (    1370 calls)
     aceupdate    :      0.00s CPU      0.00s WALL (      96 calls)
     vexxace      :      0.03s CPU      0.03s WALL (    1098 calls)
     aceinit      :    313.57s CPU    365.03s WALL (      96 calls)

     PWSCF        :   5m16.70s CPU   6m 8.75s WALL


   This run was terminated on:   9:39:27  26Jun2026            

=------------------------------------------------------------------------------=
   JOB DONE.
=------------------------------------------------------------------------------=
