
     Program PWSCF v.7.5 starts on 26Jun2026 at 10:29:54 

     This program is part of the open-source Quantum ESPRESSO suite
     for quantum simulation of materials; please cite
         "P. Giannozzi et al., J. Phys.:Condens. Matter 21 395502 (2009);
         "P. Giannozzi et al., J. Phys.:Condens. Matter 29 465901 (2017);
         "P. Giannozzi et al., J. Chem. Phys. 152 154105 (2020);
          URL http://www.quantum-espresso.org", 
     in publications or presentations arising from this work. More details at
     http://www.quantum-espresso.org/quote

     Parallel version (MPI & OpenMP), running on       4 processor cores
     Number of MPI processes:                 4
     Threads/MPI process:                     1

     MPI processes distributed on     1 nodes
     13884 MiB available memory on the printing compute node when the environment starts

     Reading input from caf2.qc.in

     Current dimensions of program PWSCF are:
     Max number of different atomic species (ntypx) = 10
     Max number of k-points (npk) =  40000
     Max angular momentum in pseudopotentials (lmaxx) =  4

     IMPORTANT: XC functional enforced from input :
     Exchange-correlation= HSE
                           (   1   4  12   4   0   0   0)
     EXX-fraction              =        0.25
     Any further DFT definition will be discarded
     Please, verify this is what you really want

     EXX Screening parameter changed:    0.7135000
     EXX fraction changed:   1.00
     DD-RSH-CAM (LMODELHF) semilocal: AEXX, BEXX =   0.4435  0.5671
     DD-RSH-CAM (LMODELHF) enabled
     AEXX =  0.4435   BEXX =  0.5671   mu(bohr^-1) =  0.7135

     R & G space division:  proc/nbgrp/npool/nimage =       4
     Subspace diagonalization in iterative solution of the eigenvalue problem:
     a serial algorithm will be used

     EXX: q-point mesh:     6    6    6
     EXX: setup a grid of 216 q-points centered on each k-point
     (k+q)-points:
   0.0000000   0.0000000   0.0000000         1    1
  -0.1666667   0.1666667  -0.1666667         2    1
  -0.3333333   0.3333333  -0.3333333         3    1
   0.5000000  -0.5000000   0.5000000         4    1
   0.3333333  -0.3333333   0.3333333         3   -1
   0.1666667  -0.1666667   0.1666667         2   -1
   0.1666667   0.1666667   0.1666667         2    3
   0.0000000   0.3333333   0.0000000         5    1
  -0.1666667   0.5000000  -0.1666667         6    1
   0.6666667  -0.3333333   0.6666667         7    1
   0.5000000  -0.1666667   0.5000000         8    1
   0.3333333   0.0000000   0.3333333         9    1
   0.3333333   0.3333333   0.3333333         3    3
   0.1666667   0.5000000   0.1666667         6    3
   0.0000000   0.6666667   0.0000000        10    1
   0.8333333  -0.1666667   0.8333333        11    1
   0.6666667   0.0000000   0.6666667        12    1
   0.5000000   0.1666667   0.5000000         8   -3
  -0.5000000  -0.5000000  -0.5000000         4    3
  -0.6666667  -0.3333333  -0.6666667         7    3
  -0.8333333  -0.1666667  -0.8333333        11    3
   0.0000000  -1.0000000   0.0000000        13    1
   0.8333333   0.1666667   0.8333333        11   -3
   0.6666667   0.3333333   0.6666667         7   -3
  -0.3333333  -0.3333333  -0.3333333         3   -3
  -0.5000000  -0.1666667  -0.5000000         8    3
  -0.6666667   0.0000000  -0.6666667        12   -1
  -0.8333333   0.1666667  -0.8333333        11   -1
   0.0000000  -0.6666667   0.0000000        10   -1
  -0.1666667  -0.5000000  -0.1666667         6   -3
  -0.1666667  -0.1666667  -0.1666667         2   -3
  -0.3333333   0.0000000  -0.3333333         9   -1
  -0.5000000   0.1666667  -0.5000000         8   -1
  -0.6666667   0.3333333  -0.6666667         7   -1
   0.1666667  -0.5000000   0.1666667         6   -1
   0.0000000  -0.3333333   0.0000000         5   -1
  -0.1666667  -0.1666667   0.1666667         2    4
  -0.3333333   0.0000000   0.0000000         5   -5
  -0.5000000   0.1666667  -0.1666667         6   -5
   0.3333333  -0.6666667   0.6666667         7   -5
   0.1666667  -0.5000000   0.5000000         8   -5
   0.0000000  -0.3333333   0.3333333         9   -5
   0.0000000   0.0000000   0.3333333         5   13
  -0.1666667   0.1666667   0.1666667         2   -2
  -0.3333333   0.3333333   0.0000000         9   13
  -0.5000000   0.5000000  -0.1666667         8   13
  -0.6666667   0.6666667  -0.3333333         7   13
   0.1666667  -0.1666667   0.5000000         6   13
   0.1666667   0.1666667   0.5000000         6  -16
   0.0000000   0.3333333   0.3333333         9   -6
  -0.1666667   0.5000000   0.1666667         6   -2
   0.6666667  -0.3333333   1.0000000        14    1
   0.5000000  -0.1666667   0.8333333        15    1
  -0.6666667   1.0000000  -0.3333333        14   13
  -0.6666667  -0.6666667  -0.3333333         7  -16
   0.1666667   0.5000000   0.5000000         8    7
  -1.0000000  -0.3333333  -0.6666667        14   -9
   0.8333333  -0.1666667  -0.8333333        11   -2
  -0.3333333  -1.0000000   0.0000000        16    1
   0.5000000   0.1666667   0.8333333        15   -3
  -0.5000000  -0.5000000  -0.1666667         8  -16
   0.3333333   0.6666667   0.6666667         7    7
  -0.8333333  -0.1666667  -0.5000000        15   -9
   0.0000000  -1.0000000   0.3333333        16   -9
   0.8333333   0.1666667  -0.8333333        11    4
   0.6666667   0.3333333   1.0000000        14   -3
  -0.3333333  -0.3333333   0.0000000         9   14
  -0.5000000  -0.1666667  -0.1666667         6    7
   0.3333333  -1.0000000   0.6666667        14   22
  -0.8333333   0.1666667  -0.5000000        15   10
  -1.0000000   0.3333333  -0.6666667        14   10
  -0.1666667  -0.5000000   0.1666667         6    4
  -0.3333333  -0.3333333   0.3333333         3    4
  -0.5000000  -0.1666667   0.1666667         6   -8
  -0.6666667   0.0000000   0.0000000        10   -5
   0.1666667  -0.8333333   0.8333333        11   -5
   0.0000000  -0.6666667   0.6666667        12   -5
  -0.1666667  -0.5000000   0.5000000         8    8
  -0.1666667  -0.1666667   0.5000000         6  -14
  -0.3333333   0.0000000   0.3333333         9    2
  -0.5000000   0.1666667   0.1666667         6    6
   0.3333333  -0.6666667   1.0000000        14   -5
   0.1666667  -0.5000000   0.8333333        15   -5
   1.0000000   0.6666667  -0.3333333        14   17
   0.0000000   0.0000000   0.6666667        10   13
  -0.1666667   0.1666667   0.5000000         6   15
  -0.3333333   0.3333333   0.3333333         3   -2
  -0.5000000   0.5000000   0.1666667         8  -15
  -0.6666667   0.6666667   0.0000000        12   13
  -0.8333333   0.8333333  -0.1666667        11   13
  -0.8333333  -0.8333333  -0.1666667        11  -16
  -1.0000000  -0.6666667  -0.3333333        14   18
  -0.1666667   0.5000000   0.5000000         8   -6
   0.6666667  -0.3333333  -0.6666667         7   -2
   0.5000000  -0.1666667  -0.8333333        15   -2
   0.3333333   0.0000000  -1.0000000        16   13
  -0.6666667  -0.6666667   0.0000000        12   14
   0.1666667   0.5000000   0.8333333        15    7
   0.0000000   0.6666667   0.6666667        12   -6
   0.8333333  -0.1666667  -0.5000000        15   12
   0.6666667   0.0000000  -0.6666667        12   -2
   0.5000000   0.1666667  -0.8333333        15    4
  -0.5000000  -0.5000000   0.1666667         8   14
   0.3333333   0.6666667   1.0000000        14    7
   0.1666667   0.8333333   0.8333333        11    7
  -1.0000000   0.0000000  -0.3333333        16   21
   0.8333333   0.1666667  -0.5000000        15  -11
   0.6666667   0.3333333  -0.6666667         7    4
   0.5000000   0.5000000  -0.5000000         4    4
   0.3333333   0.6666667  -0.6666667         7   -8
   0.1666667   0.8333333  -0.8333333        11   -8
  -1.0000000   0.0000000   0.0000000        13    5
  -0.1666667  -0.8333333   0.8333333        11    8
  -0.3333333  -0.6666667   0.6666667         7    8
   0.6666667   0.6666667  -0.3333333         7  -14
  -0.5000000  -0.1666667   0.5000000         8   -4
   0.3333333  -1.0000000  -0.6666667        14  -21
   0.1666667  -0.8333333  -0.8333333        11    6
   1.0000000   0.3333333   0.0000000        16   -5
  -0.1666667  -0.5000000   0.8333333        15    8
   0.8333333   0.8333333  -0.1666667        11  -14
   0.6666667   1.0000000  -0.3333333        14  -14
  -0.5000000   0.1666667   0.5000000         8    2
   0.3333333  -0.6666667  -0.6666667         7    6
   0.1666667  -0.5000000  -0.8333333        15    6
   0.0000000  -0.3333333  -1.0000000        16   17
   0.0000000   0.0000000  -1.0000000        13   13
   0.8333333  -0.8333333  -0.1666667        11   15
   0.6666667  -0.6666667  -0.3333333         7   15
  -0.5000000   0.5000000   0.5000000         4    2
  -0.6666667   0.6666667   0.3333333         7  -15
  -0.8333333   0.8333333   0.1666667        11  -15
  -0.8333333  -0.8333333   0.1666667        11   14
   0.0000000   0.3333333   1.0000000        16  -17
  -0.1666667   0.5000000   0.8333333        15   -6
  -0.3333333   0.6666667   0.6666667         7   -6
   0.5000000  -0.1666667  -0.5000000         8   -2
  -0.6666667  -1.0000000   0.3333333        14   14
  -0.6666667  -0.6666667   0.3333333         7   14
   0.1666667   0.5000000  -0.8333333        15   -8
  -1.0000000  -0.3333333   0.0000000        16    5
  -0.1666667   0.8333333   0.8333333        11   -6
  -0.3333333   1.0000000   0.6666667        14   21
   0.5000000   0.1666667  -0.5000000         8    4
   0.3333333   0.3333333  -0.3333333         3   -4
   0.1666667   0.5000000  -0.5000000         8   -8
   0.0000000   0.6666667  -0.6666667        12    5
  -0.1666667   0.8333333  -0.8333333        11    5
   0.6666667   0.0000000   0.0000000        10    5
   0.5000000   0.1666667  -0.1666667         6    8
   0.5000000   0.5000000  -0.1666667         8  -14
  -0.6666667  -0.3333333   0.6666667         7   -4
  -0.8333333  -0.1666667   0.5000000        15   11
   1.0000000   0.0000000   0.3333333        16  -21
  -0.1666667  -0.8333333  -0.8333333        11   -7
  -0.3333333  -0.6666667  -1.0000000        14   -7
   0.6666667   0.6666667   0.0000000        12  -14
  -0.5000000  -0.1666667   0.8333333        15   -4
  -0.6666667   0.0000000   0.6666667        12    2
  -0.8333333   0.1666667   0.5000000        15  -12
   0.0000000  -0.6666667  -0.6666667        12    6
  -0.1666667  -0.5000000  -0.8333333        15   -7
   0.8333333   0.8333333   0.1666667        11   16
  -0.3333333   0.0000000   1.0000000        16  -13
  -0.5000000   0.1666667   0.8333333        15    2
  -0.6666667   0.3333333   0.6666667         7    2
   0.1666667  -0.5000000  -0.5000000         8    6
   1.0000000   0.6666667   0.3333333        14  -18
   0.0000000   0.0000000  -0.6666667        10  -13
   0.8333333  -0.8333333   0.1666667        11  -13
   0.6666667  -0.6666667   0.0000000        12  -13
   0.5000000  -0.5000000  -0.1666667         8   15
   0.3333333  -0.3333333  -0.3333333         3    2
   0.1666667  -0.1666667  -0.5000000         6  -15
   0.1666667   0.1666667  -0.5000000         6   14
  -1.0000000  -0.6666667   0.3333333        14  -17
  -0.1666667   0.5000000  -0.8333333        15    5
  -0.3333333   0.6666667  -1.0000000        14    5
   0.5000000  -0.1666667  -0.1666667         6   -6
   0.3333333   0.0000000  -0.3333333         9   -2
   0.1666667   0.1666667  -0.1666667         2   -4
   0.0000000   0.3333333  -0.3333333         9    5
  -0.1666667   0.5000000  -0.5000000         8    5
  -0.3333333   0.6666667  -0.6666667         7    5
   0.5000000  -0.1666667   0.1666667         6    5
   0.3333333   0.0000000   0.0000000         5    5
   0.3333333   0.3333333   0.0000000         9  -14
   0.1666667   0.5000000  -0.1666667         6   -4
   1.0000000  -0.3333333   0.6666667        14  -10
   0.8333333  -0.1666667   0.5000000        15  -10
  -0.3333333   1.0000000  -0.6666667        14  -22
   0.5000000   0.1666667   0.1666667         6   -7
   0.5000000   0.5000000   0.1666667         8   16
  -0.6666667  -0.3333333  -1.0000000        14    3
  -0.8333333  -0.1666667   0.8333333        11   -4
   0.0000000   1.0000000  -0.3333333        16    9
   0.8333333   0.1666667   0.5000000        15    9
  -0.3333333  -0.6666667  -0.6666667         7   -7
   0.6666667   0.6666667   0.3333333         7   16
  -0.5000000  -0.1666667  -0.8333333        15    3
   0.3333333   1.0000000   0.0000000        16   -1
  -0.8333333   0.1666667   0.8333333        11    2
   1.0000000   0.3333333   0.6666667        14    9
  -0.1666667  -0.5000000  -0.5000000         8   -7
  -0.1666667  -0.1666667  -0.5000000         6   16
   0.6666667  -1.0000000   0.3333333        14  -13
  -0.5000000   0.1666667  -0.8333333        15   -1
  -0.6666667   0.3333333  -1.0000000        14   -1
   0.1666667  -0.5000000  -0.1666667         6    2
   0.0000000  -0.3333333  -0.3333333         9    6
   0.0000000   0.0000000  -0.3333333         5  -13
  -0.1666667   0.1666667  -0.5000000         6  -13
   0.6666667  -0.6666667   0.3333333         7  -13
   0.5000000  -0.5000000   0.1666667         8  -13
   0.3333333  -0.3333333   0.0000000         9  -13
   0.1666667  -0.1666667  -0.1666667         2    2

     Parallelization info
     --------------------
     sticks:   dense  smooth     PW     G-vecs:    dense   smooth      PW
     Min         289     289     87                 6614     6614    1068
     Max         290     290     88                 6619     6619    1071
     Sum        1159    1159    349                26469    26469    4279

     Using Slab Decomposition



     bravais-lattice index     =            2
     lattice parameter (alat)  =      10.3230  a.u.
     unit-cell volume          =     275.0159 (a.u.)^3
     number of atoms/cell      =            3
     number of atomic types    =            2
     number of electrons       =        24.00
     number of Kohn-Sham states=           20
     kinetic-energy cutoff     =      80.0000  Ry
     charge density cutoff     =     320.0000  Ry
     cutoff for Fock operator  =     320.0000  Ry
     scf convergence threshold =      1.0E-08
     mixing beta               =       0.7000
     number of iterations used =            8  plain     mixing
     Exchange-correlation= HSE
                           (   1   4  12   4   0   0   0)
     EXX-fraction              =        1.00

     celldm(1)=  10.323000  celldm(2)=   0.000000  celldm(3)=   0.000000
     celldm(4)=   0.000000  celldm(5)=   0.000000  celldm(6)=   0.000000

     crystal axes: (cart. coord. in units of alat)
               a(1) = (  -0.500000   0.000000   0.500000 )  
               a(2) = (   0.000000   0.500000   0.500000 )  
               a(3) = (  -0.500000   0.500000   0.000000 )  

     reciprocal axes: (cart. coord. in units 2 pi/alat)
               b(1) = ( -1.000000 -1.000000  1.000000 )  
               b(2) = (  1.000000  1.000000  1.000000 )  
               b(3) = ( -1.000000  1.000000 -1.000000 )  


     PseudoPot. # 1 for Ca read from file:
     ../../../../pseudos/Ca_ONCV_PBE-1.2.upf
     MD5 check sum: b43c970dc090f2312d256360aabdb6f1
     Pseudo is Norm-conserving, Zval = 10.0
     Generated using ONCVPSP code by D. R. Hamann
     Using radial grid of  602 points,  6 beta functions with: 
                l(1) =   0
                l(2) =   0
                l(3) =   1
                l(4) =   1
                l(5) =   2
                l(6) =   2

     PseudoPot. # 2 for F  read from file:
     ../../../../pseudos/F_ONCV_PBE-1.2.upf
     MD5 check sum: 1d8275f47d602dd53cad6bcdc0eda7dc
     Pseudo is Norm-conserving, Zval =  7.0
     Generated using ONCVPSP code by D. R. Hamann
     Using radial grid of  602 points,  4 beta functions with: 
                l(1) =   0
                l(2) =   0
                l(3) =   1
                l(4) =   1

     atomic species   valence    mass     pseudopotential
     Ca               10.00    40.07800     Ca( 1.00)
     F                 7.00    18.99800     F ( 1.00)

     48 Sym. Ops., with inversion, found


                                    s                        frac. trans.

      isym =  1     identity                                     

 cryst.   s( 1) = (     1          0          0      )
                  (     0          1          0      )
                  (     0          0          1      )

 cart.    s( 1) = (  1.0000000  0.0000000  0.0000000 )
                  (  0.0000000  1.0000000  0.0000000 )
                  (  0.0000000  0.0000000  1.0000000 )


      isym =  2     180 deg rotation - cart. axis [0,0,1]        

 cryst.   s( 2) = (     0          1         -1      )
                  (     1          0         -1      )
                  (     0          0         -1      )

 cart.    s( 2) = ( -1.0000000  0.0000000  0.0000000 )
                  (  0.0000000 -1.0000000  0.0000000 )
                  (  0.0000000  0.0000000  1.0000000 )


      isym =  3     180 deg rotation - cart. axis [0,1,0]        

 cryst.   s( 3) = (    -1          0          0      )
                  (    -1          0          1      )
                  (    -1          1          0      )

 cart.    s( 3) = ( -1.0000000  0.0000000  0.0000000 )
                  (  0.0000000  1.0000000  0.0000000 )
                  (  0.0000000  0.0000000 -1.0000000 )


      isym =  4     180 deg rotation - cart. axis [1,0,0]        

 cryst.   s( 4) = (     0         -1          1      )
                  (     0         -1          0      )
                  (     1         -1          0      )

 cart.    s( 4) = (  1.0000000  0.0000000  0.0000000 )
                  (  0.0000000 -1.0000000  0.0000000 )
                  (  0.0000000  0.0000000 -1.0000000 )


      isym =  5     180 deg rotation - cart. axis [1,1,0]        

 cryst.   s( 5) = (     0         -1          0      )
                  (    -1          0          0      )
                  (     0          0         -1      )

 cart.    s( 5) = (  0.0000000  1.0000000  0.0000000 )
                  (  1.0000000  0.0000000  0.0000000 )
                  (  0.0000000  0.0000000 -1.0000000 )


      isym =  6     180 deg rotation - cart. axis [1,-1,0]       

 cryst.   s( 6) = (    -1          0          1      )
                  (     0         -1          1      )
                  (     0          0          1      )

 cart.    s( 6) = (  0.0000000 -1.0000000  0.0000000 )
                  ( -1.0000000  0.0000000  0.0000000 )
                  (  0.0000000  0.0000000 -1.0000000 )


      isym =  7      90 deg rotation - cart. axis [0,0,-1]       

 cryst.   s( 7) = (     0          1          0      )
                  (     0          1         -1      )
                  (    -1          1          0      )

 cart.    s( 7) = (  0.0000000  1.0000000  0.0000000 )
                  ( -1.0000000  0.0000000  0.0000000 )
                  (  0.0000000  0.0000000  1.0000000 )


      isym =  8      90 deg rotation - cart. axis [0,0,1]        

 cryst.   s( 8) = (     1          0         -1      )
                  (     1          0          0      )
                  (     1         -1          0      )

 cart.    s( 8) = (  0.0000000 -1.0000000  0.0000000 )
                  (  1.0000000  0.0000000  0.0000000 )
                  (  0.0000000  0.0000000  1.0000000 )


      isym =  9     180 deg rotation - cart. axis [1,0,1]        

 cryst.   s( 9) = (    -1          0          0      )
                  (     0          0         -1      )
                  (     0         -1          0      )

 cart.    s( 9) = (  0.0000000  0.0000000  1.0000000 )
                  (  0.0000000 -1.0000000  0.0000000 )
                  (  1.0000000  0.0000000  0.0000000 )


      isym = 10     180 deg rotation - cart. axis [-1,0,1]       

 cryst.   s(10) = (     1          0          0      )
                  (     1         -1          0      )
                  (     1          0         -1      )

 cart.    s(10) = (  0.0000000  0.0000000 -1.0000000 )
                  (  0.0000000 -1.0000000  0.0000000 )
                  ( -1.0000000  0.0000000  0.0000000 )


      isym = 11      90 deg rotation - cart. axis [0,1,0]        

 cryst.   s(11) = (     0          1         -1      )
                  (    -1          1          0      )
                  (     0          1          0      )

 cart.    s(11) = (  0.0000000  0.0000000  1.0000000 )
                  (  0.0000000  1.0000000  0.0000000 )
                  ( -1.0000000  0.0000000  0.0000000 )


      isym = 12      90 deg rotation - cart. axis [0,-1,0]       

 cryst.   s(12) = (     0         -1          1      )
                  (     0          0          1      )
                  (    -1          0          1      )

 cart.    s(12) = (  0.0000000  0.0000000 -1.0000000 )
                  (  0.0000000  1.0000000  0.0000000 )
                  (  1.0000000  0.0000000  0.0000000 )


      isym = 13     180 deg rotation - cart. axis [0,1,1]        

 cryst.   s(13) = (    -1          1          0      )
                  (     0          1          0      )
                  (     0          1         -1      )

 cart.    s(13) = ( -1.0000000  0.0000000  0.0000000 )
                  (  0.0000000  0.0000000  1.0000000 )
                  (  0.0000000  1.0000000  0.0000000 )


      isym = 14     180 deg rotation - cart. axis [0,1,-1]       

 cryst.   s(14) = (     0          0         -1      )
                  (     0         -1          0      )
                  (    -1          0          0      )

 cart.    s(14) = ( -1.0000000  0.0000000  0.0000000 )
                  (  0.0000000  0.0000000 -1.0000000 )
                  (  0.0000000 -1.0000000  0.0000000 )


      isym = 15      90 deg rotation - cart. axis [-1,0,0]       

 cryst.   s(15) = (     0          0          1      )
                  (    -1          0          1      )
                  (     0         -1          1      )

 cart.    s(15) = (  1.0000000  0.0000000  0.0000000 )
                  (  0.0000000  0.0000000  1.0000000 )
                  (  0.0000000 -1.0000000  0.0000000 )


      isym = 16      90 deg rotation - cart. axis [1,0,0]        

 cryst.   s(16) = (     1         -1          0      )
                  (     1          0         -1      )
                  (     1          0          0      )

 cart.    s(16) = (  1.0000000  0.0000000  0.0000000 )
                  (  0.0000000  0.0000000 -1.0000000 )
                  (  0.0000000  1.0000000  0.0000000 )


      isym = 17     120 deg rotation - cart. axis [-1,-1,-1]     

 cryst.   s(17) = (    -1          0          1      )
                  (    -1          1          0      )
                  (    -1          0          0      )

 cart.    s(17) = (  0.0000000  1.0000000  0.0000000 )
                  (  0.0000000  0.0000000  1.0000000 )
                  (  1.0000000  0.0000000  0.0000000 )


      isym = 18     120 deg rotation - cart. axis [-1,1,1]       

 cryst.   s(18) = (     0          1          0      )
                  (     0          0          1      )
                  (     1          0          0      )

 cart.    s(18) = (  0.0000000 -1.0000000  0.0000000 )
                  (  0.0000000  0.0000000  1.0000000 )
                  ( -1.0000000  0.0000000  0.0000000 )


      isym = 19     120 deg rotation - cart. axis [1,1,-1]       

 cryst.   s(19) = (     1          0         -1      )
                  (     0          0         -1      )
                  (     0          1         -1      )

 cart.    s(19) = (  0.0000000  1.0000000  0.0000000 )
                  (  0.0000000  0.0000000 -1.0000000 )
                  ( -1.0000000  0.0000000  0.0000000 )


      isym = 20     120 deg rotation - cart. axis [1,-1,1]       

 cryst.   s(20) = (     0         -1          0      )
                  (     1         -1          0      )
                  (     0         -1          1      )

 cart.    s(20) = (  0.0000000 -1.0000000  0.0000000 )
                  (  0.0000000  0.0000000 -1.0000000 )
                  (  1.0000000  0.0000000  0.0000000 )


      isym = 21     120 deg rotation - cart. axis [1,1,1]        

 cryst.   s(21) = (     0          0         -1      )
                  (     0          1         -1      )
                  (     1          0         -1      )

 cart.    s(21) = (  0.0000000  0.0000000  1.0000000 )
                  (  1.0000000  0.0000000  0.0000000 )
                  (  0.0000000  1.0000000  0.0000000 )


      isym = 22     120 deg rotation - cart. axis [-1,1,-1]      

 cryst.   s(22) = (    -1          1          0      )
                  (    -1          0          0      )
                  (    -1          0          1      )

 cart.    s(22) = (  0.0000000  0.0000000  1.0000000 )
                  ( -1.0000000  0.0000000  0.0000000 )
                  (  0.0000000 -1.0000000  0.0000000 )


      isym = 23     120 deg rotation - cart. axis [1,-1,-1]      

 cryst.   s(23) = (     0          0          1      )
                  (     1          0          0      )
                  (     0          1          0      )

 cart.    s(23) = (  0.0000000  0.0000000 -1.0000000 )
                  ( -1.0000000  0.0000000  0.0000000 )
                  (  0.0000000  1.0000000  0.0000000 )


      isym = 24     120 deg rotation - cart. axis [-1,-1,1]      

 cryst.   s(24) = (     1         -1          0      )
                  (     0         -1          1      )
                  (     0         -1          0      )

 cart.    s(24) = (  0.0000000  0.0000000 -1.0000000 )
                  (  1.0000000  0.0000000  0.0000000 )
                  (  0.0000000 -1.0000000  0.0000000 )


      isym = 25     inversion                                    

 cryst.   s(25) = (    -1          0          0      )
                  (     0         -1          0      )
                  (     0          0         -1      )

 cart.    s(25) = ( -1.0000000  0.0000000  0.0000000 )
                  (  0.0000000 -1.0000000  0.0000000 )
                  (  0.0000000  0.0000000 -1.0000000 )


      isym = 26     inv. 180 deg rotation - cart. axis [0,0,1]   

 cryst.   s(26) = (     0         -1          1      )
                  (    -1          0          1      )
                  (     0          0          1      )

 cart.    s(26) = (  1.0000000  0.0000000  0.0000000 )
                  (  0.0000000  1.0000000  0.0000000 )
                  (  0.0000000  0.0000000 -1.0000000 )


      isym = 27     inv. 180 deg rotation - cart. axis [0,1,0]   

 cryst.   s(27) = (     1          0          0      )
                  (     1          0         -1      )
                  (     1         -1          0      )

 cart.    s(27) = (  1.0000000  0.0000000  0.0000000 )
                  (  0.0000000 -1.0000000  0.0000000 )
                  (  0.0000000  0.0000000  1.0000000 )


      isym = 28     inv. 180 deg rotation - cart. axis [1,0,0]   

 cryst.   s(28) = (     0          1         -1      )
                  (     0          1          0      )
                  (    -1          1          0      )

 cart.    s(28) = ( -1.0000000  0.0000000  0.0000000 )
                  (  0.0000000  1.0000000  0.0000000 )
                  (  0.0000000  0.0000000  1.0000000 )


      isym = 29     inv. 180 deg rotation - cart. axis [1,1,0]   

 cryst.   s(29) = (     0          1          0      )
                  (     1          0          0      )
                  (     0          0          1      )

 cart.    s(29) = (  0.0000000 -1.0000000  0.0000000 )
                  ( -1.0000000  0.0000000  0.0000000 )
                  (  0.0000000  0.0000000  1.0000000 )


      isym = 30     inv. 180 deg rotation - cart. axis [1,-1,0]  

 cryst.   s(30) = (     1          0         -1      )
                  (     0          1         -1      )
                  (     0          0         -1      )

 cart.    s(30) = (  0.0000000  1.0000000  0.0000000 )
                  (  1.0000000  0.0000000  0.0000000 )
                  (  0.0000000  0.0000000  1.0000000 )


      isym = 31     inv.  90 deg rotation - cart. axis [0,0,-1]  

 cryst.   s(31) = (     0         -1          0      )
                  (     0         -1          1      )
                  (     1         -1          0      )

 cart.    s(31) = (  0.0000000 -1.0000000  0.0000000 )
                  (  1.0000000  0.0000000  0.0000000 )
                  (  0.0000000  0.0000000 -1.0000000 )


      isym = 32     inv.  90 deg rotation - cart. axis [0,0,1]   

 cryst.   s(32) = (    -1          0          1      )
                  (    -1          0          0      )
                  (    -1          1          0      )

 cart.    s(32) = (  0.0000000  1.0000000  0.0000000 )
                  ( -1.0000000  0.0000000  0.0000000 )
                  (  0.0000000  0.0000000 -1.0000000 )


      isym = 33     inv. 180 deg rotation - cart. axis [1,0,1]   

 cryst.   s(33) = (     1          0          0      )
                  (     0          0          1      )
                  (     0          1          0      )

 cart.    s(33) = (  0.0000000  0.0000000 -1.0000000 )
                  (  0.0000000  1.0000000  0.0000000 )
                  ( -1.0000000  0.0000000  0.0000000 )


      isym = 34     inv. 180 deg rotation - cart. axis [-1,0,1]  

 cryst.   s(34) = (    -1          0          0      )
                  (    -1          1          0      )
                  (    -1          0          1      )

 cart.    s(34) = (  0.0000000  0.0000000  1.0000000 )
                  (  0.0000000  1.0000000  0.0000000 )
                  (  1.0000000  0.0000000  0.0000000 )


      isym = 35     inv.  90 deg rotation - cart. axis [0,1,0]   

 cryst.   s(35) = (     0         -1          1      )
                  (     1         -1          0      )
                  (     0         -1          0      )

 cart.    s(35) = (  0.0000000  0.0000000 -1.0000000 )
                  (  0.0000000 -1.0000000  0.0000000 )
                  (  1.0000000  0.0000000  0.0000000 )


      isym = 36     inv.  90 deg rotation - cart. axis [0,-1,0]  

 cryst.   s(36) = (     0          1         -1      )
                  (     0          0         -1      )
                  (     1          0         -1      )

 cart.    s(36) = (  0.0000000  0.0000000  1.0000000 )
                  (  0.0000000 -1.0000000  0.0000000 )
                  ( -1.0000000  0.0000000  0.0000000 )


      isym = 37     inv. 180 deg rotation - cart. axis [0,1,1]   

 cryst.   s(37) = (     1         -1          0      )
                  (     0         -1          0      )
                  (     0         -1          1      )

 cart.    s(37) = (  1.0000000  0.0000000  0.0000000 )
                  (  0.0000000  0.0000000 -1.0000000 )
                  (  0.0000000 -1.0000000  0.0000000 )


      isym = 38     inv. 180 deg rotation - cart. axis [0,1,-1]  

 cryst.   s(38) = (     0          0          1      )
                  (     0          1          0      )
                  (     1          0          0      )

 cart.    s(38) = (  1.0000000  0.0000000  0.0000000 )
                  (  0.0000000  0.0000000  1.0000000 )
                  (  0.0000000  1.0000000  0.0000000 )


      isym = 39     inv.  90 deg rotation - cart. axis [-1,0,0]  

 cryst.   s(39) = (     0          0         -1      )
                  (     1          0         -1      )
                  (     0          1         -1      )

 cart.    s(39) = ( -1.0000000  0.0000000  0.0000000 )
                  (  0.0000000  0.0000000 -1.0000000 )
                  (  0.0000000  1.0000000  0.0000000 )


      isym = 40     inv.  90 deg rotation - cart. axis [1,0,0]   

 cryst.   s(40) = (    -1          1          0      )
                  (    -1          0          1      )
                  (    -1          0          0      )

 cart.    s(40) = ( -1.0000000  0.0000000  0.0000000 )
                  (  0.0000000  0.0000000  1.0000000 )
                  (  0.0000000 -1.0000000  0.0000000 )


      isym = 41     inv. 120 deg rotation - cart. axis [-1,-1,-1]

 cryst.   s(41) = (     1          0         -1      )
                  (     1         -1          0      )
                  (     1          0          0      )

 cart.    s(41) = (  0.0000000 -1.0000000  0.0000000 )
                  (  0.0000000  0.0000000 -1.0000000 )
                  ( -1.0000000  0.0000000  0.0000000 )


      isym = 42     inv. 120 deg rotation - cart. axis [-1,1,1]  

 cryst.   s(42) = (     0         -1          0      )
                  (     0          0         -1      )
                  (    -1          0          0      )

 cart.    s(42) = (  0.0000000  1.0000000  0.0000000 )
                  (  0.0000000  0.0000000 -1.0000000 )
                  (  1.0000000  0.0000000  0.0000000 )


      isym = 43     inv. 120 deg rotation - cart. axis [1,1,-1]  

 cryst.   s(43) = (    -1          0          1      )
                  (     0          0          1      )
                  (     0         -1          1      )

 cart.    s(43) = (  0.0000000 -1.0000000  0.0000000 )
                  (  0.0000000  0.0000000  1.0000000 )
                  (  1.0000000  0.0000000  0.0000000 )


      isym = 44     inv. 120 deg rotation - cart. axis [1,-1,1]  

 cryst.   s(44) = (     0          1          0      )
                  (    -1          1          0      )
                  (     0          1         -1      )

 cart.    s(44) = (  0.0000000  1.0000000  0.0000000 )
                  (  0.0000000  0.0000000  1.0000000 )
                  ( -1.0000000  0.0000000  0.0000000 )


      isym = 45     inv. 120 deg rotation - cart. axis [1,1,1]   

 cryst.   s(45) = (     0          0          1      )
                  (     0         -1          1      )
                  (    -1          0          1      )

 cart.    s(45) = (  0.0000000  0.0000000 -1.0000000 )
                  ( -1.0000000  0.0000000  0.0000000 )
                  (  0.0000000 -1.0000000  0.0000000 )


      isym = 46     inv. 120 deg rotation - cart. axis [-1,1,-1] 

 cryst.   s(46) = (     1         -1          0      )
                  (     1          0          0      )
                  (     1          0         -1      )

 cart.    s(46) = (  0.0000000  0.0000000 -1.0000000 )
                  (  1.0000000  0.0000000  0.0000000 )
                  (  0.0000000  1.0000000  0.0000000 )


      isym = 47     inv. 120 deg rotation - cart. axis [1,-1,-1] 

 cryst.   s(47) = (     0          0         -1      )
                  (    -1          0          0      )
                  (     0         -1          0      )

 cart.    s(47) = (  0.0000000  0.0000000  1.0000000 )
                  (  1.0000000  0.0000000  0.0000000 )
                  (  0.0000000 -1.0000000  0.0000000 )


      isym = 48     inv. 120 deg rotation - cart. axis [-1,-1,1] 

 cryst.   s(48) = (    -1          1          0      )
                  (     0          1         -1      )
                  (     0          1          0      )

 cart.    s(48) = (  0.0000000  0.0000000  1.0000000 )
                  ( -1.0000000  0.0000000  0.0000000 )
                  (  0.0000000  1.0000000  0.0000000 )


     point group O_h (m-3m) 
     there are 10 classes
     the character table:

       E     8C3   3C2   6C4   6C2'  i     8S6   3s_h  6S4   6s_d 
A_1g   1.00  1.00  1.00  1.00  1.00  1.00  1.00  1.00  1.00  1.00
A_2g   1.00  1.00  1.00 -1.00 -1.00  1.00  1.00  1.00 -1.00 -1.00
E_g    2.00 -1.00  2.00  0.00  0.00  2.00 -1.00  2.00  0.00  0.00
T_1g   3.00  0.00 -1.00  1.00 -1.00  3.00  0.00 -1.00  1.00 -1.00
T_2g   3.00  0.00 -1.00 -1.00  1.00  3.00  0.00 -1.00 -1.00  1.00
A_1u   1.00  1.00  1.00  1.00  1.00 -1.00 -1.00 -1.00 -1.00 -1.00
A_2u   1.00  1.00  1.00 -1.00 -1.00 -1.00 -1.00 -1.00  1.00  1.00
E_u    2.00 -1.00  2.00  0.00  0.00 -2.00  1.00 -2.00  0.00  0.00
T_1u   3.00  0.00 -1.00  1.00 -1.00 -3.00  0.00  1.00 -1.00  1.00
T_2u   3.00  0.00 -1.00 -1.00  1.00 -3.00  0.00  1.00  1.00 -1.00

     the symmetry operations in each class and the name of the first element:

     E        1
          identity                                               
     8C3     17   19   20   18   24   21   22   23
          120 deg rotation - cart. axis [-1,-1,-1]               
     3C2      2    4    3
          180 deg rotation - cart. axis [0,0,1]                  
     6C4      7    8   15   16   12   11
           90 deg rotation - cart. axis [0,0,-1]                 
     6C2'     5    6   14   13   10    9
          180 deg rotation - cart. axis [1,1,0]                  
     i       25
          inversion                                              
     8S6     41   43   44   42   48   45   46   47
          inv. 120 deg rotation - cart. axis [-1,-1,-1]          
     3s_h    26   28   27
          inv. 180 deg rotation - cart. axis [0,0,1]             
     6S4     31   32   39   40   36   35
          inv.  90 deg rotation - cart. axis [0,0,-1]            
     6s_d    29   30   38   37   34   33
          inv. 180 deg rotation - cart. axis [1,1,0]             

   Cartesian axes

     site n.     atom                  positions (alat units)
         1        Ca     tau(   1) = (   0.0000000   0.0000000   0.0000000  )
         2        F      tau(   2) = (  -0.2500000   0.2500000   0.2500000  )
         3        F      tau(   3) = (  -0.7500000   0.7500000   0.7500000  )

   Crystallographic axes

     site n.     atom                  positions (cryst. coord.)
         1        Ca     tau(   1) = (  0.0000000  0.0000000  0.0000000  )
         2        F      tau(   2) = (  0.2500000  0.2500000  0.2500000  )
         3        F      tau(   3) = (  0.7500000  0.7500000  0.7500000  )

     number of k points=    16
                       cart. coord. in units 2pi/alat
        k(    1) = (   0.0000000   0.0000000   0.0000000), wk =   0.0092593
        k(    2) = (  -0.1666667   0.1666667  -0.1666667), wk =   0.0740741
        k(    3) = (  -0.3333333   0.3333333  -0.3333333), wk =   0.0740741
        k(    4) = (   0.5000000  -0.5000000   0.5000000), wk =   0.0370370
        k(    5) = (   0.0000000   0.3333333   0.0000000), wk =   0.0555556
        k(    6) = (  -0.1666667   0.5000000  -0.1666667), wk =   0.2222222
        k(    7) = (   0.6666667  -0.3333333   0.6666667), wk =   0.2222222
        k(    8) = (   0.5000000  -0.1666667   0.5000000), wk =   0.2222222
        k(    9) = (   0.3333333   0.0000000   0.3333333), wk =   0.1111111
        k(   10) = (   0.0000000   0.6666667   0.0000000), wk =   0.0555556
        k(   11) = (   0.8333333  -0.1666667   0.8333333), wk =   0.2222222
        k(   12) = (   0.6666667  -0.0000000   0.6666667), wk =   0.1111111
        k(   13) = (   0.0000000  -1.0000000   0.0000000), wk =   0.0277778
        k(   14) = (   0.6666667  -0.3333333   1.0000000), wk =   0.2222222
        k(   15) = (   0.5000000  -0.1666667   0.8333333), wk =   0.2222222
        k(   16) = (  -0.3333333  -1.0000000   0.0000000), wk =   0.1111111

                       cryst. coord.
        k(    1) = (   0.0000000   0.0000000   0.0000000), wk =   0.0092593
        k(    2) = (   0.0000000   0.0000000   0.1666667), wk =   0.0740741
        k(    3) = (   0.0000000   0.0000000   0.3333333), wk =   0.0740741
        k(    4) = (   0.0000000   0.0000000  -0.5000000), wk =   0.0370370
        k(    5) = (   0.0000000   0.1666667   0.1666667), wk =   0.0555556
        k(    6) = (   0.0000000   0.1666667   0.3333333), wk =   0.2222222
        k(    7) = (   0.0000000   0.1666667  -0.5000000), wk =   0.2222222
        k(    8) = (   0.0000000   0.1666667  -0.3333333), wk =   0.2222222
        k(    9) = (   0.0000000   0.1666667  -0.1666667), wk =   0.1111111
        k(   10) = (   0.0000000   0.3333333   0.3333333), wk =   0.0555556
        k(   11) = (   0.0000000   0.3333333  -0.5000000), wk =   0.2222222
        k(   12) = (   0.0000000   0.3333333  -0.3333333), wk =   0.1111111
        k(   13) = (   0.0000000  -0.5000000  -0.5000000), wk =   0.0277778
        k(   14) = (   0.1666667   0.3333333  -0.5000000), wk =   0.2222222
        k(   15) = (   0.1666667   0.3333333  -0.3333333), wk =   0.2222222
        k(   16) = (   0.1666667  -0.5000000  -0.3333333), wk =   0.1111111

     Dense  grid:    26469 G-vectors     FFT dimensions: (  45,  45,  45)

     Dynamical RAM for                 wfc:       0.25 MB

     Dynamical RAM for     wfc (w. buffer):       4.31 MB

     Dynamical RAM for                 EXX:     882.26 MB

     Dynamical RAM for           str. fact:       0.20 MB

     Dynamical RAM for           local pot:       0.00 MB

     Dynamical RAM for          nlocal pot:       0.43 MB

     Dynamical RAM for                qrad:       3.11 MB

     Dynamical RAM for          rho,v,vnew:       0.86 MB

     Dynamical RAM for               rhoin:       0.29 MB

     Dynamical RAM for            rho*nmix:       1.62 MB

     Dynamical RAM for           G-vectors:       0.43 MB

     Dynamical RAM for          h,s,v(r/c):       0.07 MB

     Dynamical RAM for          <psi|beta>:       0.01 MB

     Dynamical RAM for                 psi:       0.51 MB

     Dynamical RAM for                hpsi:       0.51 MB

     Dynamical RAM for      wfcinit/wfcrot:       0.52 MB

     Estimated static dynamical RAM per process >     893.12 MB

     Estimated max dynamical RAM per process >     895.83 MB

     Estimated total dynamical RAM >       3.50 GB
     EXX: ACE will be initialized later

     Initial potential from superposition of free atoms

     starting charge      23.7954, renormalised to      24.0000
     Starting wfcs are random

     total cpu time spent up to now is        0.2 secs

     Self-consistent Calculation

     iteration #  1     ecut=    80.00 Ry     beta= 0.70
     Davidson diagonalization with overlap

---- Real-time Memory Report at c_bands before calling an iterative solver
            71 MiB given to the printing process from OS
             0 MiB allocation reported by mallinfo(arena+hblkhd)
         13830 MiB available memory on the node where the printing process lives
------------------
     ethr =  1.00E-02,  avg # of iterations =  9.5

     Threshold (ethr) on eigenvalues was too large:
     Diagonalizing with lowered threshold

     Davidson diagonalization with overlap

---- Real-time Memory Report at c_bands before calling an iterative solver
            73 MiB given to the printing process from OS
             0 MiB allocation reported by mallinfo(arena+hblkhd)
         13809 MiB available memory on the node where the printing process lives
------------------
     ethr =  8.02E-04,  avg # of iterations =  1.1

     total cpu time spent up to now is        1.4 secs

     total energy              =    -169.75135724 Ry
     estimated scf accuracy    <       0.19796656 Ry

     iteration #  2     ecut=    80.00 Ry     beta= 0.70
     Davidson diagonalization with overlap

---- Real-time Memory Report at c_bands before calling an iterative solver
            76 MiB given to the printing process from OS
             0 MiB allocation reported by mallinfo(arena+hblkhd)
         13815 MiB available memory on the node where the printing process lives
------------------
     ethr =  8.25E-04,  avg # of iterations =  2.2

     total cpu time spent up to now is        1.8 secs

     total energy              =    -169.79497343 Ry
     estimated scf accuracy    <       0.14234377 Ry

     iteration #  3     ecut=    80.00 Ry     beta= 0.70
     Davidson diagonalization with overlap

---- Real-time Memory Report at c_bands before calling an iterative solver
            76 MiB given to the printing process from OS
             0 MiB allocation reported by mallinfo(arena+hblkhd)
         13815 MiB available memory on the node where the printing process lives
------------------
     ethr =  5.93E-04,  avg # of iterations =  2.0

     total cpu time spent up to now is        2.1 secs

     total energy              =    -169.82689986 Ry
     estimated scf accuracy    <       0.00187531 Ry

     iteration #  4     ecut=    80.00 Ry     beta= 0.70
     Davidson diagonalization with overlap

---- Real-time Memory Report at c_bands before calling an iterative solver
            76 MiB given to the printing process from OS
             0 MiB allocation reported by mallinfo(arena+hblkhd)
         13814 MiB available memory on the node where the printing process lives
------------------
     ethr =  7.81E-06,  avg # of iterations =  2.9

     total cpu time spent up to now is        2.4 secs

     total energy              =    -169.82714423 Ry
     estimated scf accuracy    <       0.00001703 Ry

     iteration #  5     ecut=    80.00 Ry     beta= 0.70
     Davidson diagonalization with overlap

---- Real-time Memory Report at c_bands before calling an iterative solver
            76 MiB given to the printing process from OS
             0 MiB allocation reported by mallinfo(arena+hblkhd)
         13812 MiB available memory on the node where the printing process lives
------------------
     ethr =  7.10E-08,  avg # of iterations =  2.3

     total cpu time spent up to now is        2.7 secs

     total energy              =    -169.82714745 Ry
     estimated scf accuracy    <       0.00000276 Ry

     iteration #  6     ecut=    80.00 Ry     beta= 0.70
     Davidson diagonalization with overlap

---- Real-time Memory Report at c_bands before calling an iterative solver
            77 MiB given to the printing process from OS
             0 MiB allocation reported by mallinfo(arena+hblkhd)
         13812 MiB available memory on the node where the printing process lives
------------------
     ethr =  1.15E-08,  avg # of iterations =  2.0

     total cpu time spent up to now is        3.1 secs

     total energy              =    -169.82714807 Ry
     estimated scf accuracy    <       0.00000007 Ry

     iteration #  7     ecut=    80.00 Ry     beta= 0.70
     Davidson diagonalization with overlap

---- Real-time Memory Report at c_bands before calling an iterative solver
            77 MiB given to the printing process from OS
             0 MiB allocation reported by mallinfo(arena+hblkhd)
         13811 MiB available memory on the node where the printing process lives
------------------
     ethr =  3.09E-10,  avg # of iterations =  2.0

     total cpu time spent up to now is        3.4 secs

     End of self-consistent calculation

          k = 0.0000 0.0000 0.0000 (  3287 PWs)   bands (ev):

   -32.6598 -16.4491 -15.6771 -13.5954 -13.5954 -13.5954   1.2982   1.2982
     1.2982   3.1350   3.1350   3.1350  10.7212  12.5687  12.5687  14.6025
    14.6025  14.6025  20.3999  20.3999

     occupation numbers 
     1.0000   1.0000   1.0000   1.0000   1.0000   1.0000   1.0000   1.0000
     1.0000   1.0000   1.0000   1.0000   0.0000   0.0000   0.0000   0.0000
     0.0000   0.0000   0.0000   0.0000

          k =-0.1667 0.1667-0.1667 (  3329 PWs)   bands (ev):

   -32.6516 -16.5160 -15.7500 -13.6057 -13.6057 -13.4733   1.4190   1.4190
     1.5125   2.8398   3.0131   3.0131  11.3901  12.6226  12.6226  14.3690
    14.5362  14.5362  19.2674  20.9742

     occupation numbers 
     1.0000   1.0000   1.0000   1.0000   1.0000   1.0000   1.0000   1.0000
     1.0000   1.0000   1.0000   1.0000   0.0000   0.0000   0.0000   0.0000
     0.0000   0.0000   0.0000   0.0000

          k =-0.3333 0.3333-0.3333 (  3305 PWs)   bands (ev):

   -32.6353 -16.5878 -15.9613 -13.6262 -13.6262 -13.2183   1.7013   1.7013
     1.9269   2.3539   2.7396   2.7396  12.5875  12.7280  12.7280  14.1890
    14.4035  14.4035  17.6852  22.3385

     occupation numbers 
     1.0000   1.0000   1.0000   1.0000   1.0000   1.0000   1.0000   1.0000
     1.0000   1.0000   1.0000   1.0000   0.0000   0.0000   0.0000   0.0000
     0.0000   0.0000   0.0000   0.0000

          k = 0.5000-0.5000 0.5000 (  3316 PWs)   bands (ev):

   -32.6270 -16.5862 -16.1032 -13.6364 -13.6364 -13.0884   1.8921   1.8921
     2.1114   2.1612   2.5586   2.5586  12.7789  12.7789  13.1466  14.1601
    14.3375  14.3375  17.1490  23.2528

     occupation numbers 
     1.0000   1.0000   1.0000   1.0000   1.0000   1.0000   1.0000   1.0000
     1.0000   1.0000   1.0000   1.0000   0.0000   0.0000   0.0000   0.0000
     0.0000   0.0000   0.0000   0.0000

          k = 0.0000 0.3333 0.0000 (  3327 PWs)   bands (ev):

   -32.6489 -16.5480 -15.7556 -13.6211 -13.6211 -13.4172   1.3807   1.3807
     1.7608   2.4149   3.1461   3.1461  11.6021  12.5018  12.7719  14.2654
    14.4975  14.4975  19.9265  20.5953

     occupation numbers 
     1.0000   1.0000   1.0000   1.0000   1.0000   1.0000   1.0000   1.0000
     1.0000   1.0000   1.0000   1.0000   0.0000   0.0000   0.0000   0.0000
     0.0000   0.0000   0.0000   0.0000

          k =-0.1667 0.5000-0.1667 (  3328 PWs)   bands (ev):

   -32.6353 -16.6171 -15.9201 -13.6441 -13.5912 -13.2472   1.5399   1.5531
     1.8681   2.2707   2.9944   3.0207  12.1357  12.9323  12.9725  13.8868
    14.3873  14.5502  18.6661  21.1943

     occupation numbers 
     1.0000   1.0000   1.0000   1.0000   1.0000   1.0000   1.0000   1.0000
     1.0000   1.0000   1.0000   1.0000   0.0000   0.0000   0.0000   0.0000
     0.0000   0.0000   0.0000   0.0000

          k = 0.6667-0.3333 0.6667 (  3321 PWs)   bands (ev):

   -32.6244 -16.5690 -16.1766 -13.6518 -13.5201 -13.1421   1.5109   1.7601
     1.8343   2.6538   2.6996   2.8338  12.2487  12.9356  13.2237  13.8382
    14.3111  15.2968  17.5319  21.9283

     occupation numbers 
     1.0000   1.0000   1.0000   1.0000   1.0000   1.0000   1.0000   1.0000
     1.0000   1.0000   1.0000   1.0000   0.0000   0.0000   0.0000   0.0000
     0.0000   0.0000   0.0000   0.0000

          k = 0.5000-0.1667 0.5000 (  3334 PWs)   bands (ev):

   -32.6271 -16.5570 -16.1497 -13.6366 -13.5022 -13.2045   1.4326   1.9163
     2.0321   2.4054   2.4167   3.0562  12.2994  12.7878  13.2300  13.8304
    14.3457  15.1172  17.8188  20.8573

     occupation numbers 
     1.0000   1.0000   1.0000   1.0000   1.0000   1.0000   1.0000   1.0000
     1.0000   1.0000   1.0000   1.0000   0.0000   0.0000   0.0000   0.0000
     0.0000   0.0000   0.0000   0.0000

          k = 0.3333 0.0000 0.3333 (  3325 PWs)   bands (ev):

   -32.6407 -16.5718 -15.8869 -13.6135 -13.5679 -13.3576   1.3828   1.6986
     1.9199   2.3496   2.6844   3.1623  12.0961  12.6348  12.8314  14.0433
    14.4609  14.5603  18.8094  20.4475

     occupation numbers 
     1.0000   1.0000   1.0000   1.0000   1.0000   1.0000   1.0000   1.0000
     1.0000   1.0000   1.0000   1.0000   0.0000   0.0000   0.0000   0.0000
     0.0000   0.0000   0.0000   0.0000

          k = 0.0000 0.6667 0.0000 (  3347 PWs)   bands (ev):

   -32.6272 -16.7191 -15.9075 -13.6723 -13.6723 -13.0791   1.2251   1.6004
     1.6004   2.7944   3.1001   3.1001  11.8201  13.2195  13.4371  14.1121
    14.3228  14.3228  19.9431  20.8779

     occupation numbers 
     1.0000   1.0000   1.0000   1.0000   1.0000   1.0000   1.0000   1.0000
     1.0000   1.0000   1.0000   1.0000   0.0000   0.0000   0.0000   0.0000
     0.0000   0.0000   0.0000   0.0000

          k = 0.8333-0.1667 0.8333 (  3314 PWs)   bands (ev):

   -32.6190 -16.6982 -16.0893 -13.6825 -13.5793 -13.0283   0.9601   1.6821
     1.7698   2.9289   3.0015   3.1903  11.7340  13.1322  13.2792  13.9001
    14.2679  16.1290  18.7827  19.7757

     occupation numbers 
     1.0000   1.0000   1.0000   1.0000   1.0000   1.0000   1.0000   1.0000
     1.0000   1.0000   1.0000   1.0000   0.0000   0.0000   0.0000   0.0000
     0.0000   0.0000   0.0000   0.0000

          k = 0.6667-0.0000 0.6667 (  3318 PWs)   bands (ev):

   -32.6189 -16.4763 -16.3704 -13.6648 -13.3724 -13.1935   1.1249   1.6689
     2.0070   2.5619   2.8571   3.2341  11.9194  13.0521  13.2334  13.6232
    14.2741  16.7503  18.5745  18.7333

     occupation numbers 
     1.0000   1.0000   1.0000   1.0000   1.0000   1.0000   1.0000   1.0000
     1.0000   1.0000   1.0000   1.0000   0.0000   0.0000   0.0000   0.0000
     0.0000   0.0000   0.0000   0.0000

          k = 0.0000-1.0000 0.0000 (  3306 PWs)   bands (ev):

   -32.6163 -16.7945 -15.9811 -13.6977 -13.6977 -12.9155   0.7068   1.7513
     1.7513   3.0288   3.0288   3.3900  11.5275  12.9201  13.4693  14.2520
    14.2520  16.7294  18.2297  20.1619

     occupation numbers 
     1.0000   1.0000   1.0000   1.0000   1.0000   1.0000   1.0000   1.0000
     1.0000   1.0000   1.0000   1.0000   0.0000   0.0000   0.0000   0.0000
     0.0000   0.0000   0.0000   0.0000

          k = 0.6667-0.3333 1.0000 (  3317 PWs)   bands (ev):

   -32.6244 -16.6116 -16.1235 -13.6642 -13.4857 -13.1745   1.3868   1.4632
     1.9282   2.6686   2.7860   3.1430  11.9933  13.0142  13.4914  13.5222
    14.3214  15.3809  18.7314  20.1715

     occupation numbers 
     1.0000   1.0000   1.0000   1.0000   1.0000   1.0000   1.0000   1.0000
     1.0000   1.0000   1.0000   1.0000   0.0000   0.0000   0.0000   0.0000
     0.0000   0.0000   0.0000   0.0000

          k = 0.5000-0.1667 0.8333 (  3314 PWs)   bands (ev):

   -32.6189 -16.4805 -16.3657 -13.6783 -13.3390 -13.2139   1.3153   1.3466
     2.2345   2.3944   3.0534   3.1082  11.9623  13.0402  13.2995  13.5218
    14.2828  16.6729  18.0076  20.3459

     occupation numbers 
     1.0000   1.0000   1.0000   1.0000   1.0000   1.0000   1.0000   1.0000
     1.0000   1.0000   1.0000   1.0000   0.0000   0.0000   0.0000   0.0000
     0.0000   0.0000   0.0000   0.0000

          k =-0.3333-1.0000 0.0000 (  3322 PWs)   bands (ev):

   -32.6162 -16.6278 -16.2319 -13.6995 -13.4536 -13.0732   0.9515   1.4833
     2.0449   2.6814   3.0852   3.3287  11.7538  13.0976  13.2373  13.6680
    14.2667  17.9409  18.0062  19.2060

     occupation numbers 
     1.0000   1.0000   1.0000   1.0000   1.0000   1.0000   1.0000   1.0000
     1.0000   1.0000   1.0000   1.0000   0.0000   0.0000   0.0000   0.0000
     0.0000   0.0000   0.0000   0.0000

     highest occupied, lowest unoccupied level (ev):     3.3900   10.7212

!    total energy              =    -169.82714808 Ry
     estimated scf accuracy    <          3.6E-09 Ry

     convergence has been achieved in   7 iterations

     Using ACE for calculation of exact exchange

     EXX grid:    26469 G-vectors     FFT dimensions: (  45,  45,  45)
     ACE projected onto    20 (nbndproj) and applied to    20 (nbnd) bands

     EXX: now go back to refine exchange calculation

     total cpu time spent up to now is      708.0 secs

     Self-consistent Calculation

     iteration #  1     ecut=    80.00 Ry     beta= 0.70
     Davidson diagonalization with overlap

---- Real-time Memory Report at c_bands before calling an iterative solver
          1891 MiB given to the printing process from OS
             0 MiB allocation reported by mallinfo(arena+hblkhd)
          6612 MiB available memory on the node where the printing process lives
------------------
     ethr =  3.09E-10,  avg # of iterations =  7.9

     total cpu time spent up to now is      708.8 secs

     total energy              =    -169.88296351 Ry
     estimated scf accuracy    <       0.00656894 Ry

     iteration #  2     ecut=    80.00 Ry     beta= 0.70
     Davidson diagonalization with overlap

---- Real-time Memory Report at c_bands before calling an iterative solver
          1891 MiB given to the printing process from OS
             0 MiB allocation reported by mallinfo(arena+hblkhd)
          6609 MiB available memory on the node where the printing process lives
------------------
     ethr =  2.74E-05,  avg # of iterations =  2.0

     total cpu time spent up to now is      709.2 secs

     total energy              =    -169.88460814 Ry
     estimated scf accuracy    <       0.00184057 Ry

     iteration #  3     ecut=    80.00 Ry     beta= 0.70
     Davidson diagonalization with overlap

---- Real-time Memory Report at c_bands before calling an iterative solver
          1891 MiB given to the printing process from OS
             0 MiB allocation reported by mallinfo(arena+hblkhd)
          6609 MiB available memory on the node where the printing process lives
------------------
     ethr =  7.67E-06,  avg # of iterations =  2.0

     total cpu time spent up to now is      709.5 secs

     total energy              =    -169.88504098 Ry
     estimated scf accuracy    <       0.00003379 Ry

     iteration #  4     ecut=    80.00 Ry     beta= 0.70
     Davidson diagonalization with overlap

---- Real-time Memory Report at c_bands before calling an iterative solver
          1891 MiB given to the printing process from OS
             0 MiB allocation reported by mallinfo(arena+hblkhd)
          6607 MiB available memory on the node where the printing process lives
------------------
     ethr =  1.41E-07,  avg # of iterations =  1.0

     total cpu time spent up to now is      709.8 secs

     total energy              =    -169.88504431 Ry
     estimated scf accuracy    <       0.00000032 Ry

     iteration #  5     ecut=    80.00 Ry     beta= 0.70
     Davidson diagonalization with overlap

---- Real-time Memory Report at c_bands before calling an iterative solver
          1891 MiB given to the printing process from OS
             0 MiB allocation reported by mallinfo(arena+hblkhd)
          6607 MiB available memory on the node where the printing process lives
------------------
     ethr =  1.31E-09,  avg # of iterations =  2.0

     total cpu time spent up to now is      710.2 secs

     total energy              =    -169.88504435 Ry
     estimated scf accuracy    <       0.00000001 Ry

     iteration #  6     ecut=    80.00 Ry     beta= 0.70
     Davidson diagonalization with overlap

---- Real-time Memory Report at c_bands before calling an iterative solver
          1891 MiB given to the printing process from OS
             0 MiB allocation reported by mallinfo(arena+hblkhd)
          6606 MiB available memory on the node where the printing process lives
------------------
     ethr =  5.40E-11,  avg # of iterations =  2.0

     total cpu time spent up to now is      710.5 secs

     End of self-consistent calculation

          k = 0.0000 0.0000 0.0000 (  3287 PWs)   bands (ev):

   -40.5702 -24.0283 -23.2440 -18.3013 -18.3013 -18.3012  -2.7067  -2.7067
    -2.7067  -0.6808  -0.6808  -0.6808  11.9562  15.0900  15.0900  17.5788
    17.5788  17.5788  22.0697  22.0697

     occupation numbers 
     1.0000   1.0000   1.0000   1.0000   1.0000   1.0000   1.0000   1.0000
     1.0000   1.0000   1.0000   1.0000   0.0000   0.0000   0.0000   0.0000
     0.0000   0.0000   0.0000   0.0000

          k =-0.1667 0.1667-0.1667 (  3329 PWs)   bands (ev):

   -40.5608 -24.0494 -23.3133 -18.3149 -18.3149 -18.2316  -2.5727  -2.5727
    -2.4708  -0.9957  -0.8141  -0.8141  12.6783  15.1438  15.1446  17.2774
    17.4966  17.4967  20.9368  22.7410

     occupation numbers 
     1.0000   1.0000   1.0000   1.0000   1.0000   1.0000   1.0000   1.0000
     1.0000   1.0000   1.0000   1.0000   0.0000   0.0000   0.0000   0.0000
     0.0000   0.0000   0.0000   0.0000

          k =-0.3333 0.3333-0.3333 (  3305 PWs)   bands (ev):

   -40.5420 -24.0368 -23.5143 -18.3420 -18.3420 -18.0762  -2.2540  -2.2540
    -2.0154  -1.5380  -1.1223  -1.1223  14.1392  15.2622  15.2635  16.7865
    17.3337  17.3337  19.4970  24.3592

     occupation numbers 
     1.0000   1.0000   1.0000   1.0000   1.0000   1.0000   1.0000   1.0000
     1.0000   1.0000   1.0000   1.0000   0.0000   0.0000   0.0000   0.0000
     0.0000   0.0000   0.0000   0.0000

          k = 0.5000-0.5000 0.5000 (  3316 PWs)   bands (ev):

   -40.5325 -23.9708 -23.6776 -18.3555 -18.3554 -17.9914  -2.0288  -2.0288
    -1.8327  -1.7409  -1.3382  -1.3382  15.3271  15.3272  15.5541  15.6404
    17.2522  17.2522  19.3568  25.4779

     occupation numbers 
     1.0000   1.0000   1.0000   1.0000   1.0000   1.0000   1.0000   1.0000
     1.0000   1.0000   1.0000   1.0000   0.0000   0.0000   0.0000   0.0000
     0.0000   0.0000   0.0000   0.0000

          k = 0.0000 0.3333 0.0000 (  3327 PWs)   bands (ev):

   -40.5577 -24.0653 -23.3239 -18.3348 -18.3348 -18.1810  -2.6187  -2.6187
    -2.1916  -1.4536  -0.6712  -0.6712  12.9108  14.9285  15.3562  17.1431
    17.4528  17.4530  21.6805  22.3815

     occupation numbers 
     1.0000   1.0000   1.0000   1.0000   1.0000   1.0000   1.0000   1.0000
     1.0000   1.0000   1.0000   1.0000   0.0000   0.0000   0.0000   0.0000
     0.0000   0.0000   0.0000   0.0000

          k =-0.1667 0.5000-0.1667 (  3328 PWs)   bands (ev):

   -40.5420 -24.0741 -23.4677 -18.3649 -18.3301 -18.0752  -2.4388  -2.4290
    -2.0686  -1.6285  -0.8372  -0.8104  13.8755  15.0983  15.5563  16.6303
    17.3234  17.4265  20.5343  23.1733

     occupation numbers 
     1.0000   1.0000   1.0000   1.0000   1.0000   1.0000   1.0000   1.0000
     1.0000   1.0000   1.0000   1.0000   0.0000   0.0000   0.0000   0.0000
     0.0000   0.0000   0.0000   0.0000

          k = 0.6667-0.3333 0.6667 (  3321 PWs)   bands (ev):

   -40.5294 -23.9774 -23.6981 -18.3752 -18.2868 -18.0261  -2.4551  -2.2183
    -2.1107  -1.2055  -1.1687  -1.0221  14.2933  15.5427  15.7067  16.3080
    17.2281  17.6767  19.6696  24.2614

     occupation numbers 
     1.0000   1.0000   1.0000   1.0000   1.0000   1.0000   1.0000   1.0000
     1.0000   1.0000   1.0000   1.0000   0.0000   0.0000   0.0000   0.0000
     0.0000   0.0000   0.0000   0.0000

          k = 0.5000-0.1667 0.5000 (  3334 PWs)   bands (ev):

   -40.5325 -23.9888 -23.6577 -18.3557 -18.2748 -18.0741  -2.5514  -2.0353
    -1.8836  -1.4936  -1.4770  -0.7714  14.2430  15.3312  15.6415  16.4727
    17.2647  17.6533  19.8352  22.9972

     occupation numbers 
     1.0000   1.0000   1.0000   1.0000   1.0000   1.0000   1.0000   1.0000
     1.0000   1.0000   1.0000   1.0000   0.0000   0.0000   0.0000   0.0000
     0.0000   0.0000   0.0000   0.0000

          k = 0.3333 0.0000 0.3333 (  3325 PWs)   bands (ev):

   -40.5482 -24.0573 -23.4286 -18.3255 -18.3122 -18.1602  -2.6132  -2.2616
    -2.0218  -1.5381  -1.1724  -0.6546  13.5469  15.1349  15.3052  16.8817
    17.4030  17.4569  20.6090  22.3166

     occupation numbers 
     1.0000   1.0000   1.0000   1.0000   1.0000   1.0000   1.0000   1.0000
     1.0000   1.0000   1.0000   1.0000   0.0000   0.0000   0.0000   0.0000
     0.0000   0.0000   0.0000   0.0000

          k = 0.0000 0.6667 0.0000 (  3347 PWs)   bands (ev):

   -40.5326 -24.1349 -23.4790 -18.4012 -18.4011 -17.9360  -2.7684  -2.3870
    -2.3870  -1.0515  -0.7193  -0.7193  13.7515  15.8731  15.9604  16.0911
    17.2600  17.2601  22.0546  22.8975

     occupation numbers 
     1.0000   1.0000   1.0000   1.0000   1.0000   1.0000   1.0000   1.0000
     1.0000   1.0000   1.0000   1.0000   0.0000   0.0000   0.0000   0.0000
     0.0000   0.0000   0.0000   0.0000

          k = 0.8333-0.1667 0.8333 (  3314 PWs)   bands (ev):

   -40.5232 -24.0930 -23.6193 -18.4145 -18.3538 -17.9083  -3.0719  -2.2987
    -2.2026  -0.9036  -0.8274  -0.6220  13.6744  15.6992  16.0301  16.4888
    17.1957  18.3107  20.9912  21.9961

     occupation numbers 
     1.0000   1.0000   1.0000   1.0000   1.0000   1.0000   1.0000   1.0000
     1.0000   1.0000   1.0000   1.0000   0.0000   0.0000   0.0000   0.0000
     0.0000   0.0000   0.0000   0.0000

          k = 0.6667-0.0000 0.6667 (  3318 PWs)   bands (ev):

   -40.5231 -23.9013 -23.8333 -18.3920 -18.2096 -18.0520  -2.8985  -2.3061
    -1.9347  -1.3055  -0.9971  -0.5714  13.8824  15.6946  15.7526  16.2839
    17.1899  19.0792  20.7451  20.8680

     occupation numbers 
     1.0000   1.0000   1.0000   1.0000   1.0000   1.0000   1.0000   1.0000
     1.0000   1.0000   1.0000   1.0000   0.0000   0.0000   0.0000   0.0000
     0.0000   0.0000   0.0000   0.0000

          k = 0.0000-1.0000 0.0000 (  3306 PWs)   bands (ev):

   -40.5200 -24.1679 -23.5544 -18.4340 -18.4340 -17.8107  -3.3489  -2.2308
    -2.2308  -0.7900  -0.7900  -0.4069  13.4264  15.4551  16.3111  17.1885
    17.1885  18.4541  20.5699  22.4513

     occupation numbers 
     1.0000   1.0000   1.0000   1.0000   1.0000   1.0000   1.0000   1.0000
     1.0000   1.0000   1.0000   1.0000   0.0000   0.0000   0.0000   0.0000
     0.0000   0.0000   0.0000   0.0000

          k = 0.6667-0.3333 1.0000 (  3317 PWs)   bands (ev):

   -40.5294 -24.0387 -23.6279 -18.3919 -18.2758 -18.0298  -2.5846  -2.5485
    -2.0197  -1.1982  -1.0650  -0.6717  13.9431  15.5824  15.9128  16.1541
    17.2542  17.8665  20.8173  22.2741

     occupation numbers 
     1.0000   1.0000   1.0000   1.0000   1.0000   1.0000   1.0000   1.0000
     1.0000   1.0000   1.0000   1.0000   0.0000   0.0000   0.0000   0.0000
     0.0000   0.0000   0.0000   0.0000

          k = 0.5000-0.1667 0.8333 (  3314 PWs)   bands (ev):

   -40.5231 -23.9034 -23.8311 -18.4100 -18.1634 -18.0802  -2.7228  -2.6233
    -1.6762  -1.5110  -0.7692  -0.7122  13.9364  15.6763  15.8613  16.0993
    17.2133  18.9569  20.1878  22.6574

     occupation numbers 
     1.0000   1.0000   1.0000   1.0000   1.0000   1.0000   1.0000   1.0000
     1.0000   1.0000   1.0000   1.0000   0.0000   0.0000   0.0000   0.0000
     0.0000   0.0000   0.0000   0.0000

          k =-0.3333-1.0000 0.0000 (  3322 PWs)   bands (ev):

   -40.5200 -24.0281 -23.7230 -18.4363 -18.2614 -17.9514  -3.0929  -2.5070
    -1.9011  -1.1835  -0.7276  -0.4739  13.6955  15.6426  15.9619  16.2849
    17.2086  20.1165  20.3303  21.3721

     occupation numbers 
     1.0000   1.0000   1.0000   1.0000   1.0000   1.0000   1.0000   1.0000
     1.0000   1.0000   1.0000   1.0000   0.0000   0.0000   0.0000   0.0000
     0.0000   0.0000   0.0000   0.0000

     highest occupied, lowest unoccupied level (ev):    -0.4069   11.9562

!    total energy              =    -169.88504436 Ry
     estimated scf accuracy    <          1.9E-09 Ry

     convergence has been achieved in   6 iterations

     Using ACE for calculation of exact exchange
     ACE projected onto    20 (nbndproj) and applied to    20 (nbnd) bands

     total energy              =    -169.88799131 Ry
     Harris-Foulkes estimate   =    -169.88799131 Ry
     est. exchange err (dexx)  =       0.00294695 Ry
     - averaged Fock potential =      27.26218382 Ry
     + Fock energy (ACE)       =     -13.66902522 Ry

     EXX: now go back to refine exchange calculation

     total cpu time spent up to now is     1411.2 secs

     Self-consistent Calculation

     iteration #  1     ecut=    80.00 Ry     beta= 0.70
     Davidson diagonalization with overlap

---- Real-time Memory Report at c_bands before calling an iterative solver
          1891 MiB given to the printing process from OS
             0 MiB allocation reported by mallinfo(arena+hblkhd)
          6405 MiB available memory on the node where the printing process lives
------------------
     ethr =  5.40E-11,  avg # of iterations =  6.3

     total cpu time spent up to now is     1411.8 secs

     total energy              =    -169.88841601 Ry
     estimated scf accuracy    <       0.00017954 Ry

     iteration #  2     ecut=    80.00 Ry     beta= 0.70
     Davidson diagonalization with overlap

---- Real-time Memory Report at c_bands before calling an iterative solver
          1891 MiB given to the printing process from OS
             0 MiB allocation reported by mallinfo(arena+hblkhd)
          6396 MiB available memory on the node where the printing process lives
------------------
     ethr =  7.48E-07,  avg # of iterations =  2.0

     total cpu time spent up to now is     1412.2 secs

     total energy              =    -169.88846081 Ry
     estimated scf accuracy    <       0.00004986 Ry

     iteration #  3     ecut=    80.00 Ry     beta= 0.70
     Davidson diagonalization with overlap

---- Real-time Memory Report at c_bands before calling an iterative solver
          1891 MiB given to the printing process from OS
             0 MiB allocation reported by mallinfo(arena+hblkhd)
          6396 MiB available memory on the node where the printing process lives
------------------
     ethr =  2.08E-07,  avg # of iterations =  2.0

     total cpu time spent up to now is     1412.5 secs

     total energy              =    -169.88847246 Ry
     estimated scf accuracy    <       0.00000087 Ry

     iteration #  4     ecut=    80.00 Ry     beta= 0.70
     Davidson diagonalization with overlap

---- Real-time Memory Report at c_bands before calling an iterative solver
          1891 MiB given to the printing process from OS
             0 MiB allocation reported by mallinfo(arena+hblkhd)
          6396 MiB available memory on the node where the printing process lives
------------------
     ethr =  3.63E-09,  avg # of iterations =  1.1

     total cpu time spent up to now is     1412.8 secs

     total energy              =    -169.88847254 Ry
     estimated scf accuracy    <       0.00000001 Ry

     iteration #  5     ecut=    80.00 Ry     beta= 0.70
     Davidson diagonalization with overlap

---- Real-time Memory Report at c_bands before calling an iterative solver
          1891 MiB given to the printing process from OS
             0 MiB allocation reported by mallinfo(arena+hblkhd)
          6394 MiB available memory on the node where the printing process lives
------------------
     ethr =  4.92E-11,  avg # of iterations =  2.0

     total cpu time spent up to now is     1413.1 secs

     End of self-consistent calculation

          k = 0.0000 0.0000 0.0000 (  3287 PWs)   bands (ev):

   -40.5944 -24.0399 -23.2617 -18.3098 -18.3098 -18.3098  -2.6962  -2.6962
    -2.6962  -0.7023  -0.7023  -0.7023  12.0410  15.1107  15.1107  17.5975
    17.5975  17.5975  22.1088  22.1088

     occupation numbers 
     1.0000   1.0000   1.0000   1.0000   1.0000   1.0000   1.0000   1.0000
     1.0000   1.0000   1.0000   1.0000   0.0000   0.0000   0.0000   0.0000
     0.0000   0.0000   0.0000   0.0000

          k =-0.1667 0.1667-0.1667 (  3329 PWs)   bands (ev):

   -40.5852 -24.0599 -23.3303 -18.3230 -18.3230 -18.2412  -2.5641  -2.5641
    -2.4652  -1.0073  -0.8327  -0.8327  12.7523  15.1630  15.1630  17.2996
    17.5168  17.5168  20.9786  22.7762

     occupation numbers 
     1.0000   1.0000   1.0000   1.0000   1.0000   1.0000   1.0000   1.0000
     1.0000   1.0000   1.0000   1.0000   0.0000   0.0000   0.0000   0.0000
     0.0000   0.0000   0.0000   0.0000

          k =-0.3333 0.3333-0.3333 (  3305 PWs)   bands (ev):

   -40.5668 -24.0456 -23.5292 -18.3493 -18.3493 -18.0881  -2.2488  -2.2488
    -2.0185  -1.5378  -1.1369  -1.1369  14.1999  15.2786  15.2786  16.8164
    17.3567  17.3567  19.5383  24.3882

     occupation numbers 
     1.0000   1.0000   1.0000   1.0000   1.0000   1.0000   1.0000   1.0000
     1.0000   1.0000   1.0000   1.0000   0.0000   0.0000   0.0000   0.0000
     0.0000   0.0000   0.0000   0.0000

          k = 0.5000-0.5000 0.5000 (  3316 PWs)   bands (ev):

   -40.5575 -23.9786 -23.6915 -18.3623 -18.3623 -18.0045  -2.0237  -2.0237
    -1.8306  -1.7463  -1.3526  -1.3526  15.3412  15.3412  15.6065  15.6853
    17.2765  17.2765  19.3902  25.5116

     occupation numbers 
     1.0000   1.0000   1.0000   1.0000   1.0000   1.0000   1.0000   1.0000
     1.0000   1.0000   1.0000   1.0000   0.0000   0.0000   0.0000   0.0000
     0.0000   0.0000   0.0000   0.0000

          k = 0.0000 0.3333 0.0000 (  3327 PWs)   bands (ev):

   -40.5821 -24.0753 -23.3408 -18.3422 -18.3422 -18.1919  -2.6119  -2.6119
    -2.1865  -1.4587  -0.6909  -0.6909  12.9808  14.9509  15.3738  17.1652
    17.4746  17.4746  21.7168  22.4184

     occupation numbers 
     1.0000   1.0000   1.0000   1.0000   1.0000   1.0000   1.0000   1.0000
     1.0000   1.0000   1.0000   1.0000   0.0000   0.0000   0.0000   0.0000
     0.0000   0.0000   0.0000   0.0000

          k =-0.1667 0.5000-0.1667 (  3328 PWs)   bands (ev):

   -40.5668 -24.0827 -23.4829 -18.3714 -18.3374 -18.0877  -2.4354  -2.4263
    -2.0646  -1.6314  -0.8519  -0.8264  13.9260  15.1279  15.5713  16.6583
    17.3479  17.4505  20.5710  23.2065

     occupation numbers 
     1.0000   1.0000   1.0000   1.0000   1.0000   1.0000   1.0000   1.0000
     1.0000   1.0000   1.0000   1.0000   0.0000   0.0000   0.0000   0.0000
     0.0000   0.0000   0.0000   0.0000

          k = 0.6667-0.3333 0.6667 (  3321 PWs)   bands (ev):

   -40.5545 -23.9857 -23.7109 -18.3815 -18.2949 -18.0388  -2.4475  -2.2172
    -2.1110  -1.2163  -1.1800  -1.0335  14.3301  15.5551  15.7513  16.3382
    17.2537  17.7037  19.7035  24.2834

     occupation numbers 
     1.0000   1.0000   1.0000   1.0000   1.0000   1.0000   1.0000   1.0000
     1.0000   1.0000   1.0000   1.0000   0.0000   0.0000   0.0000   0.0000
     0.0000   0.0000   0.0000   0.0000

          k = 0.5000-0.1667 0.5000 (  3334 PWs)   bands (ev):

   -40.5575 -23.9976 -23.6707 -18.3626 -18.2831 -18.0858  -2.5466  -2.0313
    -1.8815  -1.5044  -1.4868  -0.7856  14.2904  15.3442  15.6719  16.5055
    17.2890  17.6792  19.8708  23.0272

     occupation numbers 
     1.0000   1.0000   1.0000   1.0000   1.0000   1.0000   1.0000   1.0000
     1.0000   1.0000   1.0000   1.0000   0.0000   0.0000   0.0000   0.0000
     0.0000   0.0000   0.0000   0.0000

          k = 0.3333 0.0000 0.3333 (  3325 PWs)   bands (ev):

   -40.5729 -24.0666 -23.4442 -18.3333 -18.3199 -18.1709  -2.6074  -2.2556
    -2.0231  -1.5398  -1.1861  -0.6727  13.6103  15.1506  15.3253  16.9085
    17.4246  17.4800  20.6475  22.3520

     occupation numbers 
     1.0000   1.0000   1.0000   1.0000   1.0000   1.0000   1.0000   1.0000
     1.0000   1.0000   1.0000   1.0000   0.0000   0.0000   0.0000   0.0000
     0.0000   0.0000   0.0000   0.0000

          k = 0.0000 0.6667 0.0000 (  3347 PWs)   bands (ev):

   -40.5576 -24.1420 -23.4945 -18.4065 -18.4065 -17.9515  -2.7534  -2.3894
    -2.3894  -1.0614  -0.7333  -0.7333  13.7866  15.9187  15.9716  16.1243
    17.2871  17.2871  22.0717  22.9326

     occupation numbers 
     1.0000   1.0000   1.0000   1.0000   1.0000   1.0000   1.0000   1.0000
     1.0000   1.0000   1.0000   1.0000   0.0000   0.0000   0.0000   0.0000
     0.0000   0.0000   0.0000   0.0000

          k = 0.8333-0.1667 0.8333 (  3314 PWs)   bands (ev):

   -40.5484 -24.0999 -23.6329 -18.4196 -18.3599 -17.9239  -3.0554  -2.3025
    -2.2091  -0.9130  -0.8387  -0.6392  13.7089  15.7388  16.0392  16.5296
    17.2238  18.3419  21.0181  22.0229

     occupation numbers 
     1.0000   1.0000   1.0000   1.0000   1.0000   1.0000   1.0000   1.0000
     1.0000   1.0000   1.0000   1.0000   0.0000   0.0000   0.0000   0.0000
     0.0000   0.0000   0.0000   0.0000

          k = 0.6667-0.0000 0.6667 (  3318 PWs)   bands (ev):

   -40.5484 -23.9106 -23.8439 -18.3977 -18.2184 -18.0647  -2.8888  -2.3034
    -1.9429  -1.3093  -1.0116  -0.5873  13.9215  15.7047  15.7891  16.3247
    17.2168  19.1022  20.7764  20.9011

     occupation numbers 
     1.0000   1.0000   1.0000   1.0000   1.0000   1.0000   1.0000   1.0000
     1.0000   1.0000   1.0000   1.0000   0.0000   0.0000   0.0000   0.0000
     0.0000   0.0000   0.0000   0.0000

          k = 0.0000-1.0000 0.0000 (  3306 PWs)   bands (ev):

   -40.5453 -24.1736 -23.5692 -18.4384 -18.4384 -17.8284  -3.3273  -2.2397
    -2.2397  -0.7991  -0.7991  -0.4277  13.4653  15.4977  16.3190  17.2178
    17.2178  18.5015  20.5961  22.4727

     occupation numbers 
     1.0000   1.0000   1.0000   1.0000   1.0000   1.0000   1.0000   1.0000
     1.0000   1.0000   1.0000   1.0000   0.0000   0.0000   0.0000   0.0000
     0.0000   0.0000   0.0000   0.0000

          k = 0.6667-0.3333 1.0000 (  3317 PWs)   bands (ev):

   -40.5545 -24.0469 -23.6410 -18.3976 -18.2839 -18.0430  -2.5744  -2.5472
    -2.0226  -1.2086  -1.0762  -0.6858  13.9812  15.6040  15.9408  16.1907
    17.2807  17.8928  20.8473  22.3066

     occupation numbers 
     1.0000   1.0000   1.0000   1.0000   1.0000   1.0000   1.0000   1.0000
     1.0000   1.0000   1.0000   1.0000   0.0000   0.0000   0.0000   0.0000
     0.0000   0.0000   0.0000   0.0000

          k = 0.5000-0.1667 0.8333 (  3314 PWs)   bands (ev):

   -40.5484 -23.9126 -23.8419 -18.4151 -18.1739 -18.0920  -2.7171  -2.6167
    -1.6806  -1.5212  -0.7792  -0.7298  13.9737  15.6897  15.9001  16.1373
    17.2411  18.9809  20.2207  22.6828

     occupation numbers 
     1.0000   1.0000   1.0000   1.0000   1.0000   1.0000   1.0000   1.0000
     1.0000   1.0000   1.0000   1.0000   0.0000   0.0000   0.0000   0.0000
     0.0000   0.0000   0.0000   0.0000

          k =-0.3333-1.0000 0.0000 (  3322 PWs)   bands (ev):

   -40.5453 -24.0357 -23.7351 -18.4406 -18.2696 -17.9661  -3.0787  -2.5075
    -1.9098  -1.1922  -0.7365  -0.4947  13.7302  15.6810  15.9713  16.3268
    17.2378  20.1502  20.3481  21.4058

     occupation numbers 
     1.0000   1.0000   1.0000   1.0000   1.0000   1.0000   1.0000   1.0000
     1.0000   1.0000   1.0000   1.0000   0.0000   0.0000   0.0000   0.0000
     0.0000   0.0000   0.0000   0.0000

     highest occupied, lowest unoccupied level (ev):    -0.4277   12.0410

!    total energy              =    -169.88847254 Ry
     estimated scf accuracy    <          1.2E-10 Ry

     convergence has been achieved in   5 iterations

     Using ACE for calculation of exact exchange
     ACE projected onto    20 (nbndproj) and applied to    20 (nbnd) bands

     total energy              =    -169.88855437 Ry
     Harris-Foulkes estimate   =    -169.88855437 Ry
     est. exchange err (dexx)  =       0.00008183 Ry
     - averaged Fock potential =      27.35145187 Ry
     + Fock energy (ACE)       =     -13.68250847 Ry

     EXX: now go back to refine exchange calculation

     total cpu time spent up to now is     2171.2 secs

     Self-consistent Calculation

     iteration #  1     ecut=    80.00 Ry     beta= 0.70
     Davidson diagonalization with overlap

---- Real-time Memory Report at c_bands before calling an iterative solver
          1891 MiB given to the printing process from OS
             0 MiB allocation reported by mallinfo(arena+hblkhd)
          6409 MiB available memory on the node where the printing process lives
------------------
     ethr =  4.92E-11,  avg # of iterations =  5.4

     total cpu time spent up to now is     2171.7 secs

     total energy              =    -169.88856675 Ry
     estimated scf accuracy    <       0.00000606 Ry

     iteration #  2     ecut=    80.00 Ry     beta= 0.70
     Davidson diagonalization with overlap

---- Real-time Memory Report at c_bands before calling an iterative solver
          1891 MiB given to the printing process from OS
             0 MiB allocation reported by mallinfo(arena+hblkhd)
          6400 MiB available memory on the node where the printing process lives
------------------
     ethr =  2.53E-08,  avg # of iterations =  2.0

     total cpu time spent up to now is     2172.1 secs

     total energy              =    -169.88856828 Ry
     estimated scf accuracy    <       0.00000168 Ry

     iteration #  3     ecut=    80.00 Ry     beta= 0.70
     Davidson diagonalization with overlap

---- Real-time Memory Report at c_bands before calling an iterative solver
          1891 MiB given to the printing process from OS
             0 MiB allocation reported by mallinfo(arena+hblkhd)
          6399 MiB available memory on the node where the printing process lives
------------------
     ethr =  6.98E-09,  avg # of iterations =  2.0

     total cpu time spent up to now is     2172.4 secs

     total energy              =    -169.88856868 Ry
     estimated scf accuracy    <       0.00000003 Ry

     iteration #  4     ecut=    80.00 Ry     beta= 0.70
     Davidson diagonalization with overlap

---- Real-time Memory Report at c_bands before calling an iterative solver
          1891 MiB given to the printing process from OS
             0 MiB allocation reported by mallinfo(arena+hblkhd)
[...]

          k =-0.1667 0.1667-0.1667 (  3329 PWs)   bands (ev):

   -40.5894 -24.0576 -23.3290 -18.3248 -18.3248 -18.2431  -2.5615  -2.5615
    -2.4630  -1.0088  -0.8358  -0.8358  12.7692  15.1690  15.1690  17.3053
    17.5219  17.5219  20.9883  22.7845

     occupation numbers 
     1.0000   1.0000   1.0000   1.0000   1.0000   1.0000   1.0000   1.0000
     1.0000   1.0000   1.0000   1.0000   0.0000   0.0000   0.0000   0.0000
     0.0000   0.0000   0.0000   0.0000

          k =-0.3333 0.3333-0.3333 (  3305 PWs)   bands (ev):

   -40.5710 -24.0431 -23.5276 -18.3509 -18.3509 -18.0903  -2.2468  -2.2468
    -2.0180  -1.5367  -1.1391  -1.1391  14.2139  15.2839  15.2839  16.8237
    17.3624  17.3624  19.5483  24.3954

     occupation numbers 
     1.0000   1.0000   1.0000   1.0000   1.0000   1.0000   1.0000   1.0000
     1.0000   1.0000   1.0000   1.0000   0.0000   0.0000   0.0000   0.0000
     0.0000   0.0000   0.0000   0.0000

          k = 0.5000-0.5000 0.5000 (  3316 PWs)   bands (ev):

   -40.5618 -23.9759 -23.6898 -18.3638 -18.3638 -18.0069  -2.0216  -2.0216
    -1.8293  -1.7459  -1.3548  -1.3548  15.3462  15.3462  15.6186  15.6959
    17.2825  17.2825  19.3981  25.5192

     occupation numbers 
     1.0000   1.0000   1.0000   1.0000   1.0000   1.0000   1.0000   1.0000
     1.0000   1.0000   1.0000   1.0000   0.0000   0.0000   0.0000   0.0000
     0.0000   0.0000   0.0000   0.0000

          k = 0.0000 0.3333 0.0000 (  3327 PWs)   bands (ev):

   -40.5864 -24.0730 -23.3396 -18.3438 -18.3438 -18.1941  -2.6096  -2.6096
    -2.1845  -1.4587  -0.6941  -0.6941  12.9968  14.9574  15.3795  17.1709
    17.4800  17.4800  21.7257  22.4268

     occupation numbers 
     1.0000   1.0000   1.0000   1.0000   1.0000   1.0000   1.0000   1.0000
     1.0000   1.0000   1.0000   1.0000   0.0000   0.0000   0.0000   0.0000
     0.0000   0.0000   0.0000   0.0000

          k =-0.1667 0.5000-0.1667 (  3328 PWs)   bands (ev):

   -40.5711 -24.0801 -23.4814 -18.3728 -18.3389 -18.0900  -2.4336  -2.4248
    -2.0626  -1.6311  -0.8541  -0.8289  13.9377  15.1362  15.5763  16.6655
    17.3539  17.4563  20.5800  23.2144

     occupation numbers 
     1.0000   1.0000   1.0000   1.0000   1.0000   1.0000   1.0000   1.0000
     1.0000   1.0000   1.0000   1.0000   0.0000   0.0000   0.0000   0.0000
     0.0000   0.0000   0.0000   0.0000

          k = 0.6667-0.3333 0.6667 (  3321 PWs)   bands (ev):

   -40.5588 -23.9832 -23.7091 -18.3828 -18.2965 -18.0411  -2.4447  -2.2161
    -2.1101  -1.2174  -1.1815  -1.0350  14.3389  15.5597  15.7618  16.3461
    17.2599  17.7104  19.7116  24.2887

     occupation numbers 
     1.0000   1.0000   1.0000   1.0000   1.0000   1.0000   1.0000   1.0000
     1.0000   1.0000   1.0000   1.0000   0.0000   0.0000   0.0000   0.0000
     0.0000   0.0000   0.0000   0.0000

          k = 0.5000-0.1667 0.5000 (  3334 PWs)   bands (ev):

   -40.5619 -23.9951 -23.6688 -18.3640 -18.2847 -18.0880  -2.5445  -2.0295
    -1.8801  -1.5058  -1.4878  -0.7878  14.3014  15.3490  15.6800  16.5135
    17.2951  17.6856  19.8795  23.0347

     occupation numbers 
     1.0000   1.0000   1.0000   1.0000   1.0000   1.0000   1.0000   1.0000
     1.0000   1.0000   1.0000   1.0000   0.0000   0.0000   0.0000   0.0000
     0.0000   0.0000   0.0000   0.0000

          k = 0.3333 0.0000 0.3333 (  3325 PWs)   bands (ev):

   -40.5772 -24.0642 -23.4427 -18.3350 -18.3215 -18.1729  -2.6052  -2.2535
    -2.0223  -1.5391  -1.1880  -0.6757  13.6248  15.1560  15.3314  16.9153
    17.4299  17.4857  20.6568  22.3605

     occupation numbers 
     1.0000   1.0000   1.0000   1.0000   1.0000   1.0000   1.0000   1.0000
     1.0000   1.0000   1.0000   1.0000   0.0000   0.0000   0.0000   0.0000
     0.0000   0.0000   0.0000   0.0000

          k = 0.0000 0.6667 0.0000 (  3347 PWs)   bands (ev):

   -40.5619 -24.1393 -23.4930 -18.4077 -18.4077 -17.9543  -2.7490  -2.3890
    -2.3890  -1.0625  -0.7354  -0.7354  13.7949  15.9300  15.9756  16.1330
    17.2936  17.2936  22.0759  22.9406

     occupation numbers 
     1.0000   1.0000   1.0000   1.0000   1.0000   1.0000   1.0000   1.0000
     1.0000   1.0000   1.0000   1.0000   0.0000   0.0000   0.0000   0.0000
     0.0000   0.0000   0.0000   0.0000

          k = 0.8333-0.1667 0.8333 (  3314 PWs)   bands (ev):

   -40.5527 -24.0972 -23.6311 -18.4207 -18.3612 -17.9268  -3.0506  -2.3023
    -2.2095  -0.9142  -0.8403  -0.6418  13.7171  15.7490  16.0428  16.5392
    17.2306  18.3496  21.0250  22.0295

     occupation numbers 
     1.0000   1.0000   1.0000   1.0000   1.0000   1.0000   1.0000   1.0000
     1.0000   1.0000   1.0000   1.0000   0.0000   0.0000   0.0000   0.0000
     0.0000   0.0000   0.0000   0.0000

          k = 0.6667-0.0000 0.6667 (  3318 PWs)   bands (ev):

   -40.5527 -23.9082 -23.8417 -18.3990 -18.2201 -18.0671  -2.8856  -2.3018
    -1.9437  -1.3094  -1.0137  -0.5897  13.9306  15.7087  15.7986  16.3342
    17.2234  19.1083  20.7840  20.9091

     occupation numbers 
     1.0000   1.0000   1.0000   1.0000   1.0000   1.0000   1.0000   1.0000
     1.0000   1.0000   1.0000   1.0000   0.0000   0.0000   0.0000   0.0000
     0.0000   0.0000   0.0000   0.0000

          k = 0.0000-1.0000 0.0000 (  3306 PWs)   bands (ev):

   -40.5497 -24.1707 -23.5676 -18.4394 -18.4394 -17.8316  -3.3214  -2.2406
    -2.2406  -0.8003  -0.8003  -0.4310  13.4737  15.5087  16.3219  17.2248
    17.2248  18.5127  20.6026  22.4785

     occupation numbers 
     1.0000   1.0000   1.0000   1.0000   1.0000   1.0000   1.0000   1.0000
     1.0000   1.0000   1.0000   1.0000   0.0000   0.0000   0.0000   0.0000
     0.0000   0.0000   0.0000   0.0000

          k = 0.6667-0.3333 1.0000 (  3317 PWs)   bands (ev):

   -40.5588 -24.0443 -23.6392 -18.3988 -18.2855 -18.0454  -2.5709  -2.5460
    -2.0224  -1.2099  -1.0775  -0.6879  13.9903  15.6104  15.9484  16.1997
    17.2872  17.8993  20.8550  22.3145

     occupation numbers 
     1.0000   1.0000   1.0000   1.0000   1.0000   1.0000   1.0000   1.0000
     1.0000   1.0000   1.0000   1.0000   0.0000   0.0000   0.0000   0.0000
     0.0000   0.0000   0.0000   0.0000

          k = 0.5000-0.1667 0.8333 (  3314 PWs)   bands (ev):

   -40.5527 -23.9102 -23.8397 -18.4162 -18.1759 -18.0941  -2.7150  -2.6138
    -1.6807  -1.5224  -0.7804  -0.7325  13.9822  15.6943  15.9100  16.1465
    17.2478  18.9873  20.2284  22.6894

     occupation numbers 
     1.0000   1.0000   1.0000   1.0000   1.0000   1.0000   1.0000   1.0000
     1.0000   1.0000   1.0000   1.0000   0.0000   0.0000   0.0000   0.0000
     0.0000   0.0000   0.0000   0.0000

          k =-0.3333-1.0000 0.0000 (  3322 PWs)   bands (ev):

   -40.5497 -24.0331 -23.7331 -18.4415 -18.2712 -17.9688  -3.0745  -2.5064
    -1.9107  -1.1932  -0.7376  -0.4980  13.7382  15.6915  15.9749  16.3366
    17.2448  20.1583  20.3536  21.4133

     occupation numbers 
     1.0000   1.0000   1.0000   1.0000   1.0000   1.0000   1.0000   1.0000
     1.0000   1.0000   1.0000   1.0000   0.0000   0.0000   0.0000   0.0000
     0.0000   0.0000   0.0000   0.0000

     highest occupied, lowest unoccupied level (ev):    -0.4310   12.0604

!    total energy              =    -169.88857170 Ry
     estimated scf accuracy    <          9.3E-10 Ry

     convergence has been achieved in   3 iterations

     Using ACE for calculation of exact exchange
     ACE projected onto    20 (nbndproj) and applied to    20 (nbnd) bands

     total energy              =    -169.88857179 Ry
     Harris-Foulkes estimate   =    -169.88857179 Ry
     est. exchange err (dexx)  =       0.00000009 Ry
     - averaged Fock potential =      27.37069335 Ry
     + Fock energy (ACE)       =     -13.68559603 Ry

     EXX: now go back to refine exchange calculation

     total cpu time spent up to now is     3753.7 secs

     Self-consistent Calculation

     iteration #  1     ecut=    80.00 Ry     beta= 0.70
     Davidson diagonalization with overlap

---- Real-time Memory Report at c_bands before calling an iterative solver
          1891 MiB given to the printing process from OS
             0 MiB allocation reported by mallinfo(arena+hblkhd)
          6405 MiB available memory on the node where the printing process lives
------------------
     ethr =  2.37E-10,  avg # of iterations =  2.0

     total cpu time spent up to now is     3754.1 secs

     End of self-consistent calculation

          k = 0.0000 0.0000 0.0000 (  3287 PWs)   bands (ev):

   -40.5988 -24.0379 -23.2607 -18.3118 -18.3118 -18.3118  -2.6933  -2.6933
    -2.6933  -0.7062  -0.7062  -0.7062  12.0610  15.1172  15.1172  17.6023
    17.6023  17.6023  22.1178  22.1178

     occupation numbers 
     1.0000   1.0000   1.0000   1.0000   1.0000   1.0000   1.0000   1.0000
     1.0000   1.0000   1.0000   1.0000   0.0000   0.0000   0.0000   0.0000
     0.0000   0.0000   0.0000   0.0000

          k =-0.1667 0.1667-0.1667 (  3329 PWs)   bands (ev):

   -40.5897 -24.0577 -23.3291 -18.3249 -18.3249 -18.2433  -2.5616  -2.5616
    -2.4632  -1.0090  -0.8361  -0.8361  12.7697  15.1691  15.1691  17.3054
    17.5220  17.5220  20.9886  22.7847

     occupation numbers 
     1.0000   1.0000   1.0000   1.0000   1.0000   1.0000   1.0000   1.0000
     1.0000   1.0000   1.0000   1.0000   0.0000   0.0000   0.0000   0.0000
     0.0000   0.0000   0.0000   0.0000

          k =-0.3333 0.3333-0.3333 (  3305 PWs)   bands (ev):

   -40.5713 -24.0431 -23.5277 -18.3510 -18.3510 -18.0905  -2.2469  -2.2469
    -2.0182  -1.5369  -1.1393  -1.1393  14.2143  15.2840  15.2840  16.8238
    17.3625  17.3625  19.5486  24.3956

     occupation numbers 
     1.0000   1.0000   1.0000   1.0000   1.0000   1.0000   1.0000   1.0000
     1.0000   1.0000   1.0000   1.0000   0.0000   0.0000   0.0000   0.0000
     0.0000   0.0000   0.0000   0.0000

          k = 0.5000-0.5000 0.5000 (  3316 PWs)   bands (ev):

   -40.5621 -23.9759 -23.6899 -18.3639 -18.3639 -18.0071  -2.0218  -2.0218
    -1.8295  -1.7461  -1.3551  -1.3551  15.3463  15.3463  15.6190  15.6962
    17.2826  17.2826  19.3983  25.5194

     occupation numbers 
     1.0000   1.0000   1.0000   1.0000   1.0000   1.0000   1.0000   1.0000
     1.0000   1.0000   1.0000   1.0000   0.0000   0.0000   0.0000   0.0000
     0.0000   0.0000   0.0000   0.0000

          k = 0.0000 0.3333 0.0000 (  3327 PWs)   bands (ev):

   -40.5866 -24.0730 -23.3397 -18.3440 -18.3440 -18.1942  -2.6097  -2.6097
    -2.1846  -1.4589  -0.6944  -0.6944  12.9972  14.9576  15.3797  17.1710
    17.4801  17.4801  21.7259  22.4271

     occupation numbers 
     1.0000   1.0000   1.0000   1.0000   1.0000   1.0000   1.0000   1.0000
     1.0000   1.0000   1.0000   1.0000   0.0000   0.0000   0.0000   0.0000
     0.0000   0.0000   0.0000   0.0000

          k =-0.1667 0.5000-0.1667 (  3328 PWs)   bands (ev):

   -40.5713 -24.0802 -23.4815 -18.3730 -18.3390 -18.0902  -2.4338  -2.4249
    -2.0627  -1.6313  -0.8544  -0.8292  13.9381  15.1364  15.5764  16.6657
    17.3540  17.4564  20.5802  23.2146

     occupation numbers 
     1.0000   1.0000   1.0000   1.0000   1.0000   1.0000   1.0000   1.0000
     1.0000   1.0000   1.0000   1.0000   0.0000   0.0000   0.0000   0.0000
     0.0000   0.0000   0.0000   0.0000

          k = 0.6667-0.3333 0.6667 (  3321 PWs)   bands (ev):

   -40.5591 -23.9832 -23.7091 -18.3830 -18.2967 -18.0413  -2.4448  -2.2162
    -2.1103  -1.2177  -1.1817  -1.0353  14.3392  15.5598  15.7621  16.3463
    17.2601  17.7106  19.7118  24.2888

     occupation numbers 
     1.0000   1.0000   1.0000   1.0000   1.0000   1.0000   1.0000   1.0000
     1.0000   1.0000   1.0000   1.0000   0.0000   0.0000   0.0000   0.0000
     0.0000   0.0000   0.0000   0.0000

          k = 0.5000-0.1667 0.5000 (  3334 PWs)   bands (ev):

   -40.5621 -23.9951 -23.6689 -18.3642 -18.2849 -18.0881  -2.5446  -2.0297
    -1.8803  -1.5060  -1.4881  -0.7880  14.3017  15.3491  15.6802  16.5136
    17.2952  17.6858  19.8797  23.0349

     occupation numbers 
     1.0000   1.0000   1.0000   1.0000   1.0000   1.0000   1.0000   1.0000
     1.0000   1.0000   1.0000   1.0000   0.0000   0.0000   0.0000   0.0000
     0.0000   0.0000   0.0000   0.0000

          k = 0.3333 0.0000 0.3333 (  3325 PWs)   bands (ev):

   -40.5774 -24.0642 -23.4428 -18.3351 -18.3217 -18.1731  -2.6054  -2.2537
    -2.0225  -1.5393  -1.1882  -0.6760  13.6252  15.1561  15.3316  16.9154
    17.4300  17.4858  20.6571  22.3607

     occupation numbers 
     1.0000   1.0000   1.0000   1.0000   1.0000   1.0000   1.0000   1.0000
     1.0000   1.0000   1.0000   1.0000   0.0000   0.0000   0.0000   0.0000
     0.0000   0.0000   0.0000   0.0000

          k = 0.0000 0.6667 0.0000 (  3347 PWs)   bands (ev):

   -40.5622 -24.1393 -23.4930 -18.4079 -18.4079 -17.9545  -2.7490  -2.3892
    -2.3892  -1.0627  -0.7357  -0.7357  13.7951  15.9304  15.9757  16.1332
    17.2937  17.2937  22.0759  22.9408

     occupation numbers 
     1.0000   1.0000   1.0000   1.0000   1.0000   1.0000   1.0000   1.0000
     1.0000   1.0000   1.0000   1.0000   0.0000   0.0000   0.0000   0.0000
     0.0000   0.0000   0.0000   0.0000

          k = 0.8333-0.1667 0.8333 (  3314 PWs)   bands (ev):

   -40.5530 -24.0972 -23.6311 -18.4208 -18.3613 -17.9270  -3.0506  -2.3025
    -2.2097  -0.9145  -0.8405  -0.6420  13.7173  15.7492  16.0429  16.5395
    17.2307  18.3498  21.0252  22.0296

     occupation numbers 
     1.0000   1.0000   1.0000   1.0000   1.0000   1.0000   1.0000   1.0000
     1.0000   1.0000   1.0000   1.0000   0.0000   0.0000   0.0000   0.0000
     0.0000   0.0000   0.0000   0.0000

          k = 0.6667-0.0000 0.6667 (  3318 PWs)   bands (ev):

   -40.5530 -23.9082 -23.8417 -18.3991 -18.2203 -18.0672  -2.8857  -2.3019
    -1.9439  -1.3096  -1.0139  -0.5900  13.9309  15.7087  15.7988  16.3344
    17.2235  19.1084  20.7842  20.9092

     occupation numbers 
     1.0000   1.0000   1.0000   1.0000   1.0000   1.0000   1.0000   1.0000
     1.0000   1.0000   1.0000   1.0000   0.0000   0.0000   0.0000   0.0000
     0.0000   0.0000   0.0000   0.0000

          k = 0.0000-1.0000 0.0000 (  3306 PWs)   bands (ev):

   -40.5500 -24.1707 -23.5676 -18.4396 -18.4396 -17.8318  -3.3214  -2.2408
    -2.2408  -0.8005  -0.8005  -0.4313  13.4739  15.5090  16.3220  17.2249
    17.2249  18.5130  20.6027  22.4786

     occupation numbers 
     1.0000   1.0000   1.0000   1.0000   1.0000   1.0000   1.0000   1.0000
     1.0000   1.0000   1.0000   1.0000   0.0000   0.0000   0.0000   0.0000
     0.0000   0.0000   0.0000   0.0000

          k = 0.6667-0.3333 1.0000 (  3317 PWs)   bands (ev):

   -40.5591 -24.0443 -23.6392 -18.3990 -18.2856 -18.0456  -2.5710  -2.5461
    -2.0226  -1.2102  -1.0777  -0.6882  13.9905  15.6106  15.9486  16.1999
    17.2873  17.8994  20.8552  22.3147

     occupation numbers 
     1.0000   1.0000   1.0000   1.0000   1.0000   1.0000   1.0000   1.0000
     1.0000   1.0000   1.0000   1.0000   0.0000   0.0000   0.0000   0.0000
     0.0000   0.0000   0.0000   0.0000

          k = 0.5000-0.1667 0.8333 (  3314 PWs)   bands (ev):

   -40.5530 -23.9102 -23.8397 -18.4163 -18.1761 -18.0943  -2.7152  -2.6139
    -1.6809  -1.5226  -0.7807  -0.7328  13.9824  15.6944  15.9102  16.1467
    17.2479  18.9875  20.2286  22.6895

     occupation numbers 
     1.0000   1.0000   1.0000   1.0000   1.0000   1.0000   1.0000   1.0000
     1.0000   1.0000   1.0000   1.0000   0.0000   0.0000   0.0000   0.0000
     0.0000   0.0000   0.0000   0.0000

          k =-0.3333-1.0000 0.0000 (  3322 PWs)   bands (ev):

   -40.5499 -24.0331 -23.7331 -18.4417 -18.2714 -17.9690  -3.0745  -2.5066
    -1.9109  -1.1934  -0.7378  -0.4983  13.7384  15.6918  15.9750  16.3368
    17.2449  20.1585  20.3537  21.4135

     occupation numbers 
     1.0000   1.0000   1.0000   1.0000   1.0000   1.0000   1.0000   1.0000
     1.0000   1.0000   1.0000   1.0000   0.0000   0.0000   0.0000   0.0000
     0.0000   0.0000   0.0000   0.0000

     highest occupied, lowest unoccupied level (ev):    -0.4313   12.0610

!    total energy              =    -169.88857180 Ry
     estimated scf accuracy    <          6.0E-09 Ry

     convergence has been achieved in   1 iterations

     Using ACE for calculation of exact exchange
     ACE projected onto    20 (nbndproj) and applied to    20 (nbnd) bands

!!   total energy              =    -169.88857181 Ry
     Harris-Foulkes estimate   =    -169.88857181 Ry
     est. exchange err (dexx)  =          3.9E-09 Ry
     - averaged Fock potential =      27.37133324 Ry
     + Fock energy (ACE)       =     -13.68573721 Ry

     EXX self-consistency reached

     Writing all to output data dir ./out_qc/caf2qc.save/ :
     XML data file, charge density, pseudopotentials, collected wavefunctions

     init_run     :      0.21s CPU      0.22s WALL (       1 calls)
     electrons    :     10.22s CPU     10.78s WALL (       6 calls)

     Called by init_run:
     aceinit0     :      0.00s CPU      0.00s WALL (       1 calls)
     wfcinit      :      0.10s CPU      0.11s WALL (       1 calls)
     wfcinit:wfcr :      0.09s CPU      0.10s WALL (      16 calls)
     potinit      :      0.01s CPU      0.01s WALL (       1 calls)
     hinit0       :      0.09s CPU      0.09s WALL (       1 calls)

     Called by electrons:
     c_bands      :      8.59s CPU      9.03s WALL (      27 calls)
     sum_band     :      1.32s CPU      1.42s WALL (      27 calls)
     v_of_rho     :      0.30s CPU      0.32s WALL (      28 calls)
     v_h          :      0.01s CPU      0.01s WALL (      28 calls)
     v_xc         :      0.30s CPU      0.31s WALL (      28 calls)
     mix_rho      :      0.01s CPU      0.01s WALL (      27 calls)

     Called by c_bands:
     init_us_2    :      0.13s CPU      0.14s WALL (     880 calls)
     cegterg      :      8.35s CPU      8.78s WALL (     432 calls)

     Called by sum_band:
     sum_band:wei :      0.00s CPU      0.00s WALL (      27 calls)
     sum_band:loo :      1.29s CPU      1.40s WALL (      27 calls)
     sum_band:buf :      0.01s CPU      0.01s WALL (     432 calls)
     sum_band:ini :      0.06s CPU      0.07s WALL (     432 calls)

     Called by *egterg:
     cdiaghg      :      0.37s CPU      0.39s WALL (    1520 calls)
     cegterg:over :      0.23s CPU      0.24s WALL (    1184 calls)
     cegterg:upda :      0.10s CPU      0.11s WALL (    1184 calls)
     cegterg:last :      0.18s CPU      0.19s WALL (    1059 calls)
     h_psi        :      7.36s CPU      7.74s WALL (    1632 calls)
     g_psi        :      0.05s CPU      0.05s WALL (    1184 calls)

     Called by h_psi:
     h_psi:calbec :      0.19s CPU      0.20s WALL (    1632 calls)
     vloc_psi     :      6.88s CPU      7.24s WALL (    1632 calls)
                                        0.00s GPU  (    1632 calls)
     add_vuspsi   :      0.11s CPU      0.12s WALL (    1632 calls)

     General routines
     calbec       :      0.32s CPU      0.35s WALL (    3182 calls)
     fft          :      0.12s CPU      0.13s WALL (     273 calls)
     ffts         :      0.00s CPU      0.00s WALL (      27 calls)
     fftw         :      7.46s CPU      7.88s WALL (   58716 calls)
     fftc         :   3144.54s CPU   3394.44s WALL (16588800 calls)
     fftcw        :      0.75s CPU      0.97s WALL (    5760 calls)

     Parallel routines

     EXX routines
     exx_grid     :      0.00s CPU      0.01s WALL (       1 calls)
     exxinit      :      8.23s CPU     10.96s WALL (       6 calls)
     vexx         :   4213.17s CPU   4543.88s WALL (      96 calls)
     matcalc      :      0.13s CPU      0.16s WALL (    1550 calls)
     aceupdate    :      0.00s CPU      0.01s WALL (      96 calls)
     vexxace      :      0.19s CPU      0.21s WALL (    1278 calls)
     aceinit      :   4213.18s CPU   4543.90s WALL (      96 calls)

     PWSCF        :      1h10m CPU      1h16m WALL


   This run was terminated on:  11:46: 0  26Jun2026            

=------------------------------------------------------------------------------=
   JOB DONE.
=------------------------------------------------------------------------------=
