
     Program PWSCF v.7.5 starts on 16Jun2026 at 16:20:56 

     This program is part of the open-source Quantum ESPRESSO suite
     for quantum simulation of materials; please cite
         "P. Giannozzi et al., J. Phys.:Condens. Matter 21 395502 (2009);
         "P. Giannozzi et al., J. Phys.:Condens. Matter 29 465901 (2017);
         "P. Giannozzi et al., J. Chem. Phys. 152 154105 (2020);
          URL http://www.quantum-espresso.org", 
     in publications or presentations arising from this work. More details at
     http://www.quantum-espresso.org/quote

     Serial multi-threaded version, running on    4 processor cores
     12954 MiB available memory on the printing compute node when the environment starts

     Reading input from nacl.scf.in

     Current dimensions of program PWSCF are:
     Max number of different atomic species (ntypx) = 10
     Max number of k-points (npk) =  40000
     Max angular momentum in pseudopotentials (lmaxx) =  4


     G-vector sticks info
     --------------------
     sticks:   dense  smooth     PW     G-vecs:    dense   smooth      PW
     Sum         769     769    241                14163    14163    2421

     Using Slab Decomposition



     bravais-lattice index     =            2
     lattice parameter (alat)  =      10.5730  a.u.
     unit-cell volume          =     295.4845 (a.u.)^3
     number of atoms/cell      =            2
     number of atomic types    =            2
     number of electrons       =        16.00
     number of Kohn-Sham states=           16
     kinetic-energy cutoff     =      50.0000  Ry
     charge density cutoff     =     200.0000  Ry
     scf convergence threshold =      1.0E-12
     mixing beta               =       0.7000
     number of iterations used =            8  plain     mixing
     Exchange-correlation= PBE
                           (   1   4   3   4   0   0   0)

     celldm(1)=  10.573000  celldm(2)=   0.000000  celldm(3)=   0.000000
     celldm(4)=   0.000000  celldm(5)=   0.000000  celldm(6)=   0.000000

     crystal axes: (cart. coord. in units of alat)
               a(1) = (  -0.500000   0.000000   0.500000 )  
               a(2) = (   0.000000   0.500000   0.500000 )  
               a(3) = (  -0.500000   0.500000   0.000000 )  

     reciprocal axes: (cart. coord. in units 2 pi/alat)
               b(1) = ( -1.000000 -1.000000  1.000000 )  
               b(2) = (  1.000000  1.000000  1.000000 )  
               b(3) = ( -1.000000  1.000000 -1.000000 )  


     PseudoPot. # 1 for Na read from file:
     ../../../../pseudos/Na_ONCV_PBE-1.2.upf
     MD5 check sum: 425b17ce8ead78efa4860b7b3310c7e3
     Pseudo is Norm-conserving, Zval =  9.0
     Generated using ONCVPSP code by D. R. Hamann
     Using radial grid of  602 points,  4 beta functions with: 
                l(1) =   0
                l(2) =   0
                l(3) =   1
                l(4) =   1

     PseudoPot. # 2 for Cl read from file:
     ../../../../pseudos/Cl_ONCV_PBE-1.2.upf
     MD5 check sum: 0f993535b366f580ecbcdacce103c843
     Pseudo is Norm-conserving, Zval =  7.0
     Generated using ONCVPSP code by D. R. Hamann
     Using radial grid of  602 points,  4 beta functions with: 
                l(1) =   0
                l(2) =   0
                l(3) =   1
                l(4) =   1

     atomic species   valence    mass     pseudopotential
     Na                9.00    22.99000     Na( 1.00)
     Cl                7.00    35.45300     Cl( 1.00)

     48 Sym. Ops., with inversion, found


                                    s                        frac. trans.

      isym =  1     identity                                     

 cryst.   s( 1) = (     1          0          0      )
                  (     0          1          0      )
                  (     0          0          1      )

 cart.    s( 1) = (  1.0000000  0.0000000  0.0000000 )
                  (  0.0000000  1.0000000  0.0000000 )
                  (  0.0000000  0.0000000  1.0000000 )


      isym =  2     180 deg rotation - cart. axis [0,0,1]        

 cryst.   s( 2) = (     0          1         -1      )
                  (     1          0         -1      )
                  (     0          0         -1      )

 cart.    s( 2) = ( -1.0000000  0.0000000  0.0000000 )
                  (  0.0000000 -1.0000000  0.0000000 )
                  (  0.0000000  0.0000000  1.0000000 )


      isym =  3     180 deg rotation - cart. axis [0,1,0]        

 cryst.   s( 3) = (    -1          0          0      )
                  (    -1          0          1      )
                  (    -1          1          0      )

 cart.    s( 3) = ( -1.0000000  0.0000000  0.0000000 )
                  (  0.0000000  1.0000000  0.0000000 )
                  (  0.0000000  0.0000000 -1.0000000 )


      isym =  4     180 deg rotation - cart. axis [1,0,0]        

 cryst.   s( 4) = (     0         -1          1      )
                  (     0         -1          0      )
                  (     1         -1          0      )

 cart.    s( 4) = (  1.0000000  0.0000000  0.0000000 )
                  (  0.0000000 -1.0000000  0.0000000 )
                  (  0.0000000  0.0000000 -1.0000000 )


      isym =  5     180 deg rotation - cart. axis [1,1,0]        

 cryst.   s( 5) = (     0         -1          0      )
                  (    -1          0          0      )
                  (     0          0         -1      )

 cart.    s( 5) = (  0.0000000  1.0000000  0.0000000 )
                  (  1.0000000  0.0000000  0.0000000 )
                  (  0.0000000  0.0000000 -1.0000000 )


      isym =  6     180 deg rotation - cart. axis [1,-1,0]       

 cryst.   s( 6) = (    -1          0          1      )
                  (     0         -1          1      )
                  (     0          0          1      )

 cart.    s( 6) = (  0.0000000 -1.0000000  0.0000000 )
                  ( -1.0000000  0.0000000  0.0000000 )
                  (  0.0000000  0.0000000 -1.0000000 )


      isym =  7      90 deg rotation - cart. axis [0,0,-1]       

 cryst.   s( 7) = (     0          1          0      )
                  (     0          1         -1      )
                  (    -1          1          0      )

 cart.    s( 7) = (  0.0000000  1.0000000  0.0000000 )
                  ( -1.0000000  0.0000000  0.0000000 )
                  (  0.0000000  0.0000000  1.0000000 )


      isym =  8      90 deg rotation - cart. axis [0,0,1]        

 cryst.   s( 8) = (     1          0         -1      )
                  (     1          0          0      )
                  (     1         -1          0      )

 cart.    s( 8) = (  0.0000000 -1.0000000  0.0000000 )
                  (  1.0000000  0.0000000  0.0000000 )
                  (  0.0000000  0.0000000  1.0000000 )


      isym =  9     180 deg rotation - cart. axis [1,0,1]        

 cryst.   s( 9) = (    -1          0          0      )
                  (     0          0         -1      )
                  (     0         -1          0      )

 cart.    s( 9) = (  0.0000000  0.0000000  1.0000000 )
                  (  0.0000000 -1.0000000  0.0000000 )
                  (  1.0000000  0.0000000  0.0000000 )


      isym = 10     180 deg rotation - cart. axis [-1,0,1]       

 cryst.   s(10) = (     1          0          0      )
                  (     1         -1          0      )
                  (     1          0         -1      )

 cart.    s(10) = (  0.0000000  0.0000000 -1.0000000 )
                  (  0.0000000 -1.0000000  0.0000000 )
                  ( -1.0000000  0.0000000  0.0000000 )


      isym = 11      90 deg rotation - cart. axis [0,1,0]        

 cryst.   s(11) = (     0          1         -1      )
                  (    -1          1          0      )
                  (     0          1          0      )

 cart.    s(11) = (  0.0000000  0.0000000  1.0000000 )
                  (  0.0000000  1.0000000  0.0000000 )
                  ( -1.0000000  0.0000000  0.0000000 )


      isym = 12      90 deg rotation - cart. axis [0,-1,0]       

 cryst.   s(12) = (     0         -1          1      )
                  (     0          0          1      )
                  (    -1          0          1      )

 cart.    s(12) = (  0.0000000  0.0000000 -1.0000000 )
                  (  0.0000000  1.0000000  0.0000000 )
                  (  1.0000000  0.0000000  0.0000000 )


      isym = 13     180 deg rotation - cart. axis [0,1,1]        

 cryst.   s(13) = (    -1          1          0      )
                  (     0          1          0      )
                  (     0          1         -1      )

 cart.    s(13) = ( -1.0000000  0.0000000  0.0000000 )
                  (  0.0000000  0.0000000  1.0000000 )
                  (  0.0000000  1.0000000  0.0000000 )


      isym = 14     180 deg rotation - cart. axis [0,1,-1]       

 cryst.   s(14) = (     0          0         -1      )
                  (     0         -1          0      )
                  (    -1          0          0      )

 cart.    s(14) = ( -1.0000000  0.0000000  0.0000000 )
                  (  0.0000000  0.0000000 -1.0000000 )
                  (  0.0000000 -1.0000000  0.0000000 )


      isym = 15      90 deg rotation - cart. axis [-1,0,0]       

 cryst.   s(15) = (     0          0          1      )
                  (    -1          0          1      )
                  (     0         -1          1      )

 cart.    s(15) = (  1.0000000  0.0000000  0.0000000 )
                  (  0.0000000  0.0000000  1.0000000 )
                  (  0.0000000 -1.0000000  0.0000000 )


      isym = 16      90 deg rotation - cart. axis [1,0,0]        

 cryst.   s(16) = (     1         -1          0      )
                  (     1          0         -1      )
                  (     1          0          0      )

 cart.    s(16) = (  1.0000000  0.0000000  0.0000000 )
                  (  0.0000000  0.0000000 -1.0000000 )
                  (  0.0000000  1.0000000  0.0000000 )


      isym = 17     120 deg rotation - cart. axis [-1,-1,-1]     

 cryst.   s(17) = (    -1          0          1      )
                  (    -1          1          0      )
                  (    -1          0          0      )

 cart.    s(17) = (  0.0000000  1.0000000  0.0000000 )
                  (  0.0000000  0.0000000  1.0000000 )
                  (  1.0000000  0.0000000  0.0000000 )


      isym = 18     120 deg rotation - cart. axis [-1,1,1]       

 cryst.   s(18) = (     0          1          0      )
                  (     0          0          1      )
                  (     1          0          0      )

 cart.    s(18) = (  0.0000000 -1.0000000  0.0000000 )
                  (  0.0000000  0.0000000  1.0000000 )
                  ( -1.0000000  0.0000000  0.0000000 )


      isym = 19     120 deg rotation - cart. axis [1,1,-1]       

 cryst.   s(19) = (     1          0         -1      )
                  (     0          0         -1      )
                  (     0          1         -1      )

 cart.    s(19) = (  0.0000000  1.0000000  0.0000000 )
                  (  0.0000000  0.0000000 -1.0000000 )
                  ( -1.0000000  0.0000000  0.0000000 )


      isym = 20     120 deg rotation - cart. axis [1,-1,1]       

 cryst.   s(20) = (     0         -1          0      )
                  (     1         -1          0      )
                  (     0         -1          1      )

 cart.    s(20) = (  0.0000000 -1.0000000  0.0000000 )
                  (  0.0000000  0.0000000 -1.0000000 )
                  (  1.0000000  0.0000000  0.0000000 )


      isym = 21     120 deg rotation - cart. axis [1,1,1]        

 cryst.   s(21) = (     0          0         -1      )
                  (     0          1         -1      )
                  (     1          0         -1      )

 cart.    s(21) = (  0.0000000  0.0000000  1.0000000 )
                  (  1.0000000  0.0000000  0.0000000 )
                  (  0.0000000  1.0000000  0.0000000 )


      isym = 22     120 deg rotation - cart. axis [-1,1,-1]      

 cryst.   s(22) = (    -1          1          0      )
                  (    -1          0          0      )
                  (    -1          0          1      )

 cart.    s(22) = (  0.0000000  0.0000000  1.0000000 )
                  ( -1.0000000  0.0000000  0.0000000 )
                  (  0.0000000 -1.0000000  0.0000000 )


      isym = 23     120 deg rotation - cart. axis [1,-1,-1]      

 cryst.   s(23) = (     0          0          1      )
                  (     1          0          0      )
                  (     0          1          0      )

 cart.    s(23) = (  0.0000000  0.0000000 -1.0000000 )
                  ( -1.0000000  0.0000000  0.0000000 )
                  (  0.0000000  1.0000000  0.0000000 )


      isym = 24     120 deg rotation - cart. axis [-1,-1,1]      

 cryst.   s(24) = (     1         -1          0      )
                  (     0         -1          1      )
                  (     0         -1          0      )

 cart.    s(24) = (  0.0000000  0.0000000 -1.0000000 )
                  (  1.0000000  0.0000000  0.0000000 )
                  (  0.0000000 -1.0000000  0.0000000 )


      isym = 25     inversion                                    

 cryst.   s(25) = (    -1          0          0      )
                  (     0         -1          0      )
                  (     0          0         -1      )

 cart.    s(25) = ( -1.0000000  0.0000000  0.0000000 )
                  (  0.0000000 -1.0000000  0.0000000 )
                  (  0.0000000  0.0000000 -1.0000000 )


      isym = 26     inv. 180 deg rotation - cart. axis [0,0,1]   

 cryst.   s(26) = (     0         -1          1      )
                  (    -1          0          1      )
                  (     0          0          1      )

 cart.    s(26) = (  1.0000000  0.0000000  0.0000000 )
                  (  0.0000000  1.0000000  0.0000000 )
                  (  0.0000000  0.0000000 -1.0000000 )


      isym = 27     inv. 180 deg rotation - cart. axis [0,1,0]   

 cryst.   s(27) = (     1          0          0      )
                  (     1          0         -1      )
                  (     1         -1          0      )

 cart.    s(27) = (  1.0000000  0.0000000  0.0000000 )
                  (  0.0000000 -1.0000000  0.0000000 )
                  (  0.0000000  0.0000000  1.0000000 )


      isym = 28     inv. 180 deg rotation - cart. axis [1,0,0]   

 cryst.   s(28) = (     0          1         -1      )
                  (     0          1          0      )
                  (    -1          1          0      )

 cart.    s(28) = ( -1.0000000  0.0000000  0.0000000 )
                  (  0.0000000  1.0000000  0.0000000 )
                  (  0.0000000  0.0000000  1.0000000 )


      isym = 29     inv. 180 deg rotation - cart. axis [1,1,0]   

 cryst.   s(29) = (     0          1          0      )
                  (     1          0          0      )
                  (     0          0          1      )

 cart.    s(29) = (  0.0000000 -1.0000000  0.0000000 )
                  ( -1.0000000  0.0000000  0.0000000 )
                  (  0.0000000  0.0000000  1.0000000 )


      isym = 30     inv. 180 deg rotation - cart. axis [1,-1,0]  

 cryst.   s(30) = (     1          0         -1      )
                  (     0          1         -1      )
                  (     0          0         -1      )

 cart.    s(30) = (  0.0000000  1.0000000  0.0000000 )
                  (  1.0000000  0.0000000  0.0000000 )
                  (  0.0000000  0.0000000  1.0000000 )


      isym = 31     inv.  90 deg rotation - cart. axis [0,0,-1]  

 cryst.   s(31) = (     0         -1          0      )
                  (     0         -1          1      )
                  (     1         -1          0      )

 cart.    s(31) = (  0.0000000 -1.0000000  0.0000000 )
                  (  1.0000000  0.0000000  0.0000000 )
                  (  0.0000000  0.0000000 -1.0000000 )


      isym = 32     inv.  90 deg rotation - cart. axis [0,0,1]   

 cryst.   s(32) = (    -1          0          1      )
                  (    -1          0          0      )
                  (    -1          1          0      )

 cart.    s(32) = (  0.0000000  1.0000000  0.0000000 )
                  ( -1.0000000  0.0000000  0.0000000 )
                  (  0.0000000  0.0000000 -1.0000000 )


      isym = 33     inv. 180 deg rotation - cart. axis [1,0,1]   

 cryst.   s(33) = (     1          0          0      )
                  (     0          0          1      )
                  (     0          1          0      )

 cart.    s(33) = (  0.0000000  0.0000000 -1.0000000 )
                  (  0.0000000  1.0000000  0.0000000 )
                  ( -1.0000000  0.0000000  0.0000000 )


      isym = 34     inv. 180 deg rotation - cart. axis [-1,0,1]  

 cryst.   s(34) = (    -1          0          0      )
                  (    -1          1          0      )
                  (    -1          0          1      )

 cart.    s(34) = (  0.0000000  0.0000000  1.0000000 )
                  (  0.0000000  1.0000000  0.0000000 )
                  (  1.0000000  0.0000000  0.0000000 )


      isym = 35     inv.  90 deg rotation - cart. axis [0,1,0]   

 cryst.   s(35) = (     0         -1          1      )
                  (     1         -1          0      )
                  (     0         -1          0      )

 cart.    s(35) = (  0.0000000  0.0000000 -1.0000000 )
                  (  0.0000000 -1.0000000  0.0000000 )
                  (  1.0000000  0.0000000  0.0000000 )


      isym = 36     inv.  90 deg rotation - cart. axis [0,-1,0]  

 cryst.   s(36) = (     0          1         -1      )
                  (     0          0         -1      )
                  (     1          0         -1      )

 cart.    s(36) = (  0.0000000  0.0000000  1.0000000 )
                  (  0.0000000 -1.0000000  0.0000000 )
                  ( -1.0000000  0.0000000  0.0000000 )


      isym = 37     inv. 180 deg rotation - cart. axis [0,1,1]   

 cryst.   s(37) = (     1         -1          0      )
                  (     0         -1          0      )
                  (     0         -1          1      )

 cart.    s(37) = (  1.0000000  0.0000000  0.0000000 )
                  (  0.0000000  0.0000000 -1.0000000 )
                  (  0.0000000 -1.0000000  0.0000000 )


      isym = 38     inv. 180 deg rotation - cart. axis [0,1,-1]  

 cryst.   s(38) = (     0          0          1      )
                  (     0          1          0      )
                  (     1          0          0      )

 cart.    s(38) = (  1.0000000  0.0000000  0.0000000 )
                  (  0.0000000  0.0000000  1.0000000 )
                  (  0.0000000  1.0000000  0.0000000 )


      isym = 39     inv.  90 deg rotation - cart. axis [-1,0,0]  

 cryst.   s(39) = (     0          0         -1      )
                  (     1          0         -1      )
                  (     0          1         -1      )

 cart.    s(39) = ( -1.0000000  0.0000000  0.0000000 )
                  (  0.0000000  0.0000000 -1.0000000 )
                  (  0.0000000  1.0000000  0.0000000 )


      isym = 40     inv.  90 deg rotation - cart. axis [1,0,0]   

 cryst.   s(40) = (    -1          1          0      )
                  (    -1          0          1      )
                  (    -1          0          0      )

 cart.    s(40) = ( -1.0000000  0.0000000  0.0000000 )
                  (  0.0000000  0.0000000  1.0000000 )
                  (  0.0000000 -1.0000000  0.0000000 )


      isym = 41     inv. 120 deg rotation - cart. axis [-1,-1,-1]

 cryst.   s(41) = (     1          0         -1      )
                  (     1         -1          0      )
                  (     1          0          0      )

 cart.    s(41) = (  0.0000000 -1.0000000  0.0000000 )
                  (  0.0000000  0.0000000 -1.0000000 )
                  ( -1.0000000  0.0000000  0.0000000 )


      isym = 42     inv. 120 deg rotation - cart. axis [-1,1,1]  

 cryst.   s(42) = (     0         -1          0      )
                  (     0          0         -1      )
                  (    -1          0          0      )

 cart.    s(42) = (  0.0000000  1.0000000  0.0000000 )
                  (  0.0000000  0.0000000 -1.0000000 )
                  (  1.0000000  0.0000000  0.0000000 )


      isym = 43     inv. 120 deg rotation - cart. axis [1,1,-1]  

 cryst.   s(43) = (    -1          0          1      )
                  (     0          0          1      )
                  (     0         -1          1      )

 cart.    s(43) = (  0.0000000 -1.0000000  0.0000000 )
                  (  0.0000000  0.0000000  1.0000000 )
                  (  1.0000000  0.0000000  0.0000000 )


      isym = 44     inv. 120 deg rotation - cart. axis [1,-1,1]  

 cryst.   s(44) = (     0          1          0      )
                  (    -1          1          0      )
                  (     0          1         -1      )

 cart.    s(44) = (  0.0000000  1.0000000  0.0000000 )
                  (  0.0000000  0.0000000  1.0000000 )
                  ( -1.0000000  0.0000000  0.0000000 )


      isym = 45     inv. 120 deg rotation - cart. axis [1,1,1]   

 cryst.   s(45) = (     0          0          1      )
                  (     0         -1          1      )
                  (    -1          0          1      )

 cart.    s(45) = (  0.0000000  0.0000000 -1.0000000 )
                  ( -1.0000000  0.0000000  0.0000000 )
                  (  0.0000000 -1.0000000  0.0000000 )


      isym = 46     inv. 120 deg rotation - cart. axis [-1,1,-1] 

 cryst.   s(46) = (     1         -1          0      )
                  (     1          0          0      )
                  (     1          0         -1      )

 cart.    s(46) = (  0.0000000  0.0000000 -1.0000000 )
                  (  1.0000000  0.0000000  0.0000000 )
                  (  0.0000000  1.0000000  0.0000000 )


      isym = 47     inv. 120 deg rotation - cart. axis [1,-1,-1] 

 cryst.   s(47) = (     0          0         -1      )
                  (    -1          0          0      )
                  (     0         -1          0      )

 cart.    s(47) = (  0.0000000  0.0000000  1.0000000 )
                  (  1.0000000  0.0000000  0.0000000 )
                  (  0.0000000 -1.0000000  0.0000000 )


      isym = 48     inv. 120 deg rotation - cart. axis [-1,-1,1] 

 cryst.   s(48) = (    -1          1          0      )
                  (     0          1         -1      )
                  (     0          1          0      )

 cart.    s(48) = (  0.0000000  0.0000000  1.0000000 )
                  ( -1.0000000  0.0000000  0.0000000 )
                  (  0.0000000  1.0000000  0.0000000 )


     point group O_h (m-3m) 
     there are 10 classes
     the character table:

       E     8C3   3C2   6C4   6C2'  i     8S6   3s_h  6S4   6s_d 
A_1g   1.00  1.00  1.00  1.00  1.00  1.00  1.00  1.00  1.00  1.00
A_2g   1.00  1.00  1.00 -1.00 -1.00  1.00  1.00  1.00 -1.00 -1.00
E_g    2.00 -1.00  2.00  0.00  0.00  2.00 -1.00  2.00  0.00  0.00
T_1g   3.00  0.00 -1.00  1.00 -1.00  3.00  0.00 -1.00  1.00 -1.00
T_2g   3.00  0.00 -1.00 -1.00  1.00  3.00  0.00 -1.00 -1.00  1.00
A_1u   1.00  1.00  1.00  1.00  1.00 -1.00 -1.00 -1.00 -1.00 -1.00
A_2u   1.00  1.00  1.00 -1.00 -1.00 -1.00 -1.00 -1.00  1.00  1.00
E_u    2.00 -1.00  2.00  0.00  0.00 -2.00  1.00 -2.00  0.00  0.00
T_1u   3.00  0.00 -1.00  1.00 -1.00 -3.00  0.00  1.00 -1.00  1.00
T_2u   3.00  0.00 -1.00 -1.00  1.00 -3.00  0.00  1.00  1.00 -1.00

     the symmetry operations in each class and the name of the first element:

     E        1
          identity                                               
     8C3     17   19   20   18   24   21   22   23
          120 deg rotation - cart. axis [-1,-1,-1]               
     3C2      2    4    3
          180 deg rotation - cart. axis [0,0,1]                  
     6C4      7    8   15   16   12   11
           90 deg rotation - cart. axis [0,0,-1]                 
     6C2'     5    6   14   13   10    9
          180 deg rotation - cart. axis [1,1,0]                  
     i       25
          inversion                                              
     8S6     41   43   44   42   48   45   46   47
          inv. 120 deg rotation - cart. axis [-1,-1,-1]          
     3s_h    26   28   27
          inv. 180 deg rotation - cart. axis [0,0,1]             
     6S4     31   32   39   40   36   35
          inv.  90 deg rotation - cart. axis [0,0,-1]            
     6s_d    29   30   38   37   34   33
          inv. 180 deg rotation - cart. axis [1,1,0]             

   Cartesian axes

     site n.     atom                  positions (alat units)
         1        Na     tau(   1) = (   0.0000000   0.0000000   0.0000000  )
         2        Cl     tau(   2) = (  -0.5000000   0.5000000   0.5000000  )

   Crystallographic axes

     site n.     atom                  positions (cryst. coord.)
         1        Na     tau(   1) = (  0.0000000  0.0000000  0.0000000  )
         2        Cl     tau(   2) = (  0.5000000  0.5000000  0.5000000  )

     number of k points=    29
                       cart. coord. in units 2pi/alat
        k(    1) = (   0.0000000   0.0000000   0.0000000), wk =   0.0039062
        k(    2) = (  -0.1250000   0.1250000  -0.1250000), wk =   0.0312500
        k(    3) = (  -0.2500000   0.2500000  -0.2500000), wk =   0.0312500
        k(    4) = (  -0.3750000   0.3750000  -0.3750000), wk =   0.0312500
        k(    5) = (   0.5000000  -0.5000000   0.5000000), wk =   0.0156250
        k(    6) = (   0.0000000   0.2500000   0.0000000), wk =   0.0234375
        k(    7) = (  -0.1250000   0.3750000  -0.1250000), wk =   0.0937500
        k(    8) = (  -0.2500000   0.5000000  -0.2500000), wk =   0.0937500
        k(    9) = (   0.6250000  -0.3750000   0.6250000), wk =   0.0937500
        k(   10) = (   0.5000000  -0.2500000   0.5000000), wk =   0.0937500
        k(   11) = (   0.3750000  -0.1250000   0.3750000), wk =   0.0937500
        k(   12) = (   0.2500000   0.0000000   0.2500000), wk =   0.0468750
        k(   13) = (   0.0000000   0.5000000   0.0000000), wk =   0.0234375
        k(   14) = (  -0.1250000   0.6250000  -0.1250000), wk =   0.0937500
        k(   15) = (   0.7500000  -0.2500000   0.7500000), wk =   0.0937500
        k(   16) = (   0.6250000  -0.1250000   0.6250000), wk =   0.0937500
        k(   17) = (   0.5000000   0.0000000   0.5000000), wk =   0.0468750
        k(   18) = (   0.0000000   0.7500000   0.0000000), wk =   0.0234375
        k(   19) = (   0.8750000  -0.1250000   0.8750000), wk =   0.0937500
        k(   20) = (   0.7500000   0.0000000   0.7500000), wk =   0.0468750
        k(   21) = (   0.0000000  -1.0000000   0.0000000), wk =   0.0117188
        k(   22) = (  -0.2500000   0.5000000   0.0000000), wk =   0.0937500
        k(   23) = (   0.6250000  -0.3750000   0.8750000), wk =   0.1875000
        k(   24) = (   0.5000000  -0.2500000   0.7500000), wk =   0.0937500
        k(   25) = (   0.7500000  -0.2500000   1.0000000), wk =   0.0937500
        k(   26) = (   0.6250000  -0.1250000   0.8750000), wk =   0.1875000
        k(   27) = (   0.5000000   0.0000000   0.7500000), wk =   0.0937500
        k(   28) = (  -0.2500000  -1.0000000   0.0000000), wk =   0.0468750
        k(   29) = (  -0.5000000  -1.0000000   0.0000000), wk =   0.0234375

                       cryst. coord.
        k(    1) = (   0.0000000   0.0000000   0.0000000), wk =   0.0039062
        k(    2) = (   0.0000000   0.0000000   0.1250000), wk =   0.0312500
        k(    3) = (   0.0000000   0.0000000   0.2500000), wk =   0.0312500
        k(    4) = (   0.0000000   0.0000000   0.3750000), wk =   0.0312500
        k(    5) = (   0.0000000   0.0000000  -0.5000000), wk =   0.0156250
        k(    6) = (   0.0000000   0.1250000   0.1250000), wk =   0.0234375
        k(    7) = (   0.0000000   0.1250000   0.2500000), wk =   0.0937500
        k(    8) = (   0.0000000   0.1250000   0.3750000), wk =   0.0937500
        k(    9) = (   0.0000000   0.1250000  -0.5000000), wk =   0.0937500
        k(   10) = (   0.0000000   0.1250000  -0.3750000), wk =   0.0937500
        k(   11) = (   0.0000000   0.1250000  -0.2500000), wk =   0.0937500
        k(   12) = (   0.0000000   0.1250000  -0.1250000), wk =   0.0468750
        k(   13) = (   0.0000000   0.2500000   0.2500000), wk =   0.0234375
        k(   14) = (   0.0000000   0.2500000   0.3750000), wk =   0.0937500
        k(   15) = (   0.0000000   0.2500000  -0.5000000), wk =   0.0937500
        k(   16) = (   0.0000000   0.2500000  -0.3750000), wk =   0.0937500
        k(   17) = (   0.0000000   0.2500000  -0.2500000), wk =   0.0468750
        k(   18) = (   0.0000000   0.3750000   0.3750000), wk =   0.0234375
        k(   19) = (   0.0000000   0.3750000  -0.5000000), wk =   0.0937500
        k(   20) = (   0.0000000   0.3750000  -0.3750000), wk =   0.0468750
        k(   21) = (   0.0000000  -0.5000000  -0.5000000), wk =   0.0117188
        k(   22) = (   0.1250000   0.2500000   0.3750000), wk =   0.0937500
        k(   23) = (   0.1250000   0.2500000  -0.5000000), wk =   0.1875000
        k(   24) = (   0.1250000   0.2500000  -0.3750000), wk =   0.0937500
        k(   25) = (   0.1250000   0.3750000  -0.5000000), wk =   0.0937500
        k(   26) = (   0.1250000   0.3750000  -0.3750000), wk =   0.1875000
        k(   27) = (   0.1250000   0.3750000  -0.2500000), wk =   0.0937500
        k(   28) = (   0.1250000  -0.5000000  -0.3750000), wk =   0.0468750
        k(   29) = (   0.2500000  -0.5000000  -0.2500000), wk =   0.0234375

     Dense  grid:    14163 G-vectors     FFT dimensions: (  36,  36,  36)

     Dynamical RAM for                 wfc:       0.43 MB

     Dynamical RAM for     wfc (w. buffer):      12.92 MB

     Dynamical RAM for           str. fact:       0.43 MB

     Dynamical RAM for           local pot:       0.00 MB

     Dynamical RAM for          nlocal pot:       0.43 MB

     Dynamical RAM for                qrad:       0.65 MB

     Dynamical RAM for          rho,v,vnew:       1.72 MB

     Dynamical RAM for               rhoin:       0.57 MB

     Dynamical RAM for            rho*nmix:       3.46 MB

     Dynamical RAM for           G-vectors:       0.92 MB

     Dynamical RAM for          h,s,v(r/c):       0.05 MB

     Dynamical RAM for          <psi|beta>:       0.00 MB

     Dynamical RAM for                 psi:       0.86 MB

     Dynamical RAM for                hpsi:       0.86 MB

     Dynamical RAM for      wfcinit/wfcrot:       0.87 MB

     Estimated static dynamical RAM per process >      20.07 MB

     Estimated max dynamical RAM per process >      25.30 MB

     Initial potential from superposition of free atoms

     starting charge      15.8586, renormalised to      16.0000
     Starting wfcs are random

     total cpu time spent up to now is        1.0 secs

     Self-consistent Calculation

     iteration #  1     ecut=    50.00 Ry     beta= 0.70
     Davidson diagonalization with overlap

---- Real-time Memory Report at c_bands before calling an iterative solver
            40 MiB given to the printing process from OS
             0 MiB allocation reported by mallinfo(arena+hblkhd)
         12930 MiB available memory on the node where the printing process lives
------------------
     ethr =  1.00E-02,  avg # of iterations =  8.0

     Threshold (ethr) on eigenvalues was too large:
     Diagonalizing with lowered threshold

     Davidson diagonalization with overlap

---- Real-time Memory Report at c_bands before calling an iterative solver
            42 MiB given to the printing process from OS
             0 MiB allocation reported by mallinfo(arena+hblkhd)
         12927 MiB available memory on the node where the printing process lives
------------------
     ethr =  3.05E-04,  avg # of iterations =  3.2

     total cpu time spent up to now is        5.5 secs

     total energy              =    -115.63871744 Ry
     estimated scf accuracy    <       0.04706601 Ry

     iteration #  2     ecut=    50.00 Ry     beta= 0.70
     Davidson diagonalization with overlap

---- Real-time Memory Report at c_bands before calling an iterative solver
            47 MiB given to the printing process from OS
             0 MiB allocation reported by mallinfo(arena+hblkhd)
         12924 MiB available memory on the node where the printing process lives
------------------
     ethr =  2.94E-04,  avg # of iterations =  2.3

     total cpu time spent up to now is        6.8 secs

     total energy              =    -115.65068928 Ry
     estimated scf accuracy    <       0.00880654 Ry

     iteration #  3     ecut=    50.00 Ry     beta= 0.70
     Davidson diagonalization with overlap

---- Real-time Memory Report at c_bands before calling an iterative solver
            48 MiB given to the printing process from OS
             0 MiB allocation reported by mallinfo(arena+hblkhd)
         12922 MiB available memory on the node where the printing process lives
------------------
     ethr =  5.50E-05,  avg # of iterations =  2.3

     total cpu time spent up to now is        8.0 secs

     total energy              =    -115.65247140 Ry
     estimated scf accuracy    <       0.00027498 Ry

     iteration #  4     ecut=    50.00 Ry     beta= 0.70
     Davidson diagonalization with overlap

---- Real-time Memory Report at c_bands before calling an iterative solver
            48 MiB given to the printing process from OS
             0 MiB allocation reported by mallinfo(arena+hblkhd)
         12922 MiB available memory on the node where the printing process lives
------------------
     ethr =  1.72E-06,  avg # of iterations =  5.1

     total cpu time spent up to now is        9.5 secs

     total energy              =    -115.65250827 Ry
     estimated scf accuracy    <       0.00000531 Ry

     iteration #  5     ecut=    50.00 Ry     beta= 0.70
     Davidson diagonalization with overlap

---- Real-time Memory Report at c_bands before calling an iterative solver
            49 MiB given to the printing process from OS
             0 MiB allocation reported by mallinfo(arena+hblkhd)
         12921 MiB available memory on the node where the printing process lives
------------------
     ethr =  3.32E-08,  avg # of iterations =  2.0

     total cpu time spent up to now is       10.8 secs

     total energy              =    -115.65250999 Ry
     estimated scf accuracy    <       0.00000026 Ry

     iteration #  6     ecut=    50.00 Ry     beta= 0.70
     Davidson diagonalization with overlap

---- Real-time Memory Report at c_bands before calling an iterative solver
            49 MiB given to the printing process from OS
             0 MiB allocation reported by mallinfo(arena+hblkhd)
         12920 MiB available memory on the node where the printing process lives
------------------
     ethr =  1.59E-09,  avg # of iterations =  2.0

     total cpu time spent up to now is       12.1 secs

     total energy              =    -115.65251012 Ry
     estimated scf accuracy    <       0.00000001 Ry

     iteration #  7     ecut=    50.00 Ry     beta= 0.70
     Davidson diagonalization with overlap

---- Real-time Memory Report at c_bands before calling an iterative solver
            50 MiB given to the printing process from OS
             0 MiB allocation reported by mallinfo(arena+hblkhd)
         12920 MiB available memory on the node where the printing process lives
------------------
     ethr =  8.47E-11,  avg # of iterations =  2.0

     total cpu time spent up to now is       13.4 secs

     total energy              =    -115.65251012 Ry
     estimated scf accuracy    <          5.1E-11 Ry

     iteration #  8     ecut=    50.00 Ry     beta= 0.70
     Davidson diagonalization with overlap

---- Real-time Memory Report at c_bands before calling an iterative solver
            50 MiB given to the printing process from OS
             0 MiB allocation reported by mallinfo(arena+hblkhd)
         12920 MiB available memory on the node where the printing process lives
------------------
     ethr =  3.19E-13,  avg # of iterations =  3.8

     total cpu time spent up to now is       14.9 secs

     total energy              =    -115.65251012 Ry
     estimated scf accuracy    <          6.9E-12 Ry

     iteration #  9     ecut=    50.00 Ry     beta= 0.70
     Davidson diagonalization with overlap

---- Real-time Memory Report at c_bands before calling an iterative solver
            51 MiB given to the printing process from OS
             0 MiB allocation reported by mallinfo(arena+hblkhd)
         12921 MiB available memory on the node where the printing process lives
------------------
     ethr =  1.00E-13,  avg # of iterations =  1.7

     total cpu time spent up to now is       16.1 secs

     End of self-consistent calculation

          k = 0.0000 0.0000 0.0000 (  1807 PWs)   bands (ev):

   -47.4775 -19.4258 -19.4258 -19.4258 -11.2854   1.3957   1.3957   1.3957
     6.6090  12.6683  12.6683  12.6683  14.9191  14.9191  16.3976  18.7519

     occupation numbers 
     1.0000   1.0000   1.0000   1.0000   1.0000   1.0000   1.0000   1.0000
     0.0000   0.0000   0.0000   0.0000   0.0000   0.0000   0.0000   0.0000

          k =-0.1250 0.1250-0.1250 (  1783 PWs)   bands (ev):

   -47.4770 -19.4306 -19.4262 -19.4262 -11.2355   1.0154   1.3534   1.3534
     7.1133  12.1065  12.8653  12.8653  14.6434  14.6434  17.3502  18.6204

     occupation numbers 
     1.0000   1.0000   1.0000   1.0000   1.0000   1.0000   1.0000   1.0000
     0.0000   0.0000   0.0000   0.0000   0.0000   0.0000   0.0000   0.0000

          k =-0.2500 0.2500-0.2500 (  1778 PWs)   bands (ev):

   -47.4766 -19.4421 -19.4270 -19.4270 -11.1114   0.2634   1.2544   1.2544
     8.0950  11.5409  12.9612  12.9612  14.8486  14.8486  17.2417  20.5839

     occupation numbers 
     1.0000   1.0000   1.0000   1.0000   1.0000   1.0000   1.0000   1.0000
     0.0000   0.0000   0.0000   0.0000   0.0000   0.0000   0.0000   0.0000

          k =-0.3750 0.3750-0.3750 (  1769 PWs)   bands (ev):

   -47.4762 -19.4534 -19.4278 -19.4278 -10.9819  -0.3593   1.1597   1.1597
     8.6627  11.8168  12.6712  12.6712  16.2231  16.2231  16.7236  20.3603

     occupation numbers 
     1.0000   1.0000   1.0000   1.0000   1.0000   1.0000   1.0000   1.0000
     0.0000   0.0000   0.0000   0.0000   0.0000   0.0000   0.0000   0.0000

          k = 0.5000-0.5000 0.5000 (  1772 PWs)   bands (ev):

   -47.4761 -19.4580 -19.4281 -19.4281 -10.9264  -0.5940   1.1216   1.1216
     8.7517  12.2266  12.5304  12.5304  16.5996  17.8560  17.8560  18.8834

     occupation numbers 
     1.0000   1.0000   1.0000   1.0000   1.0000   1.0000   1.0000   1.0000
     0.0000   0.0000   0.0000   0.0000   0.0000   0.0000   0.0000   0.0000

          k = 0.0000 0.2500 0.0000 (  1788 PWs)   bands (ev):

   -47.4770 -19.4303 -19.4271 -19.4271 -11.2202   0.9927   1.2947   1.2947
     7.2791  11.8132  13.0414  13.0414  13.9061  15.1404  17.8192  19.1768

     occupation numbers 
     1.0000   1.0000   1.0000   1.0000   1.0000   1.0000   1.0000   1.0000
     0.0000   0.0000   0.0000   0.0000   0.0000   0.0000   0.0000   0.0000

          k =-0.1250 0.3750-0.1250 (  1778 PWs)   bands (ev):

   -47.4766 -19.4385 -19.4284 -19.4278 -11.1240   0.4457   1.1864   1.1963
     8.1273  11.2403  12.8252  13.3266  13.9550  15.4216  18.4025  20.1095

     occupation numbers 
     1.0000   1.0000   1.0000   1.0000   1.0000   1.0000   1.0000   1.0000
     0.0000   0.0000   0.0000   0.0000   0.0000   0.0000   0.0000   0.0000

          k =-0.2500 0.5000-0.2500 (  1774 PWs)   bands (ev):

   -47.4763 -19.4490 -19.4292 -19.4289 -10.9991  -0.1488   1.0523   1.0941
     8.9151  11.2890  12.2031  13.1331  15.1481  16.5758  17.9074  20.3042

     occupation numbers 
     1.0000   1.0000   1.0000   1.0000   1.0000   1.0000   1.0000   1.0000
     0.0000   0.0000   0.0000   0.0000   0.0000   0.0000   0.0000   0.0000

          k = 0.6250-0.3750 0.6250 (  1760 PWs)   bands (ev):

   -47.4758 -19.4553 -19.4303 -19.4291 -10.9195  -0.4737   0.9300   1.0677
     9.1443  11.7150  12.1497  12.8698  16.4731  17.8047  17.8648  18.6956

     occupation numbers 
     1.0000   1.0000   1.0000   1.0000   1.0000   1.0000   1.0000   1.0000
     0.0000   0.0000   0.0000   0.0000   0.0000   0.0000   0.0000   0.0000

          k = 0.5000-0.2500 0.5000 (  1770 PWs)   bands (ev):

   -47.4760 -19.4539 -19.4311 -19.4281 -10.9365  -0.4015   0.8997   1.1207
     9.1396  11.7598  12.0636  12.8519  16.0287  17.5885  17.7774  18.2531

     occupation numbers 
     1.0000   1.0000   1.0000   1.0000   1.0000   1.0000   1.0000   1.0000
     0.0000   0.0000   0.0000   0.0000   0.0000   0.0000   0.0000   0.0000

          k = 0.3750-0.1250 0.3750 (  1771 PWs)   bands (ev):

   -47.4763 -19.4459 -19.4305 -19.4269 -11.0388   0.0314   0.9881   1.2257
     8.7392  11.3153  12.4344  13.1422  14.4083  16.2835  18.0814  20.3434

     occupation numbers 
     1.0000   1.0000   1.0000   1.0000   1.0000   1.0000   1.0000   1.0000
     0.0000   0.0000   0.0000   0.0000   0.0000   0.0000   0.0000   0.0000

          k = 0.2500 0.0000 0.2500 (  1769 PWs)   bands (ev):

   -47.4766 -19.4362 -19.4285 -19.4261 -11.1621   0.6166   1.1766   1.3238
     7.7941  11.5749  12.9091  13.2151  13.9077  15.1334  18.3599  18.9313

     occupation numbers 
     1.0000   1.0000   1.0000   1.0000   1.0000   1.0000   1.0000   1.0000
     0.0000   0.0000   0.0000   0.0000   0.0000   0.0000   0.0000   0.0000

          k = 0.0000 0.5000 0.0000 (  1748 PWs)   bands (ev):

   -47.4760 -19.4394 -19.4302 -19.4302 -11.0696   0.2962   1.0671   1.0671
     8.6129  10.6135  12.4171  14.0385  14.0385  15.7558  20.3552  20.3553

     occupation numbers 
     1.0000   1.0000   1.0000   1.0000   1.0000   1.0000   1.0000   1.0000
     0.0000   0.0000   0.0000   0.0000   0.0000   0.0000   0.0000   0.0000

          k =-0.1250 0.6250-0.1250 (  1761 PWs)   bands (ev):

   -47.4759 -19.4451 -19.4321 -19.4315 -10.9779  -0.0361   0.8851   0.9683
     9.2696  10.3752  11.8998  14.1791  14.9469  16.6792  19.8240  20.6095

     occupation numbers 
     1.0000   1.0000   1.0000   1.0000   1.0000   1.0000   1.0000   1.0000
     0.0000   0.0000   0.0000   0.0000   0.0000   0.0000   0.0000   0.0000

          k = 0.7500-0.2500 0.7500 (  1762 PWs)   bands (ev):

   -47.4758 -19.4493 -19.4351 -19.4314 -10.9022  -0.2285   0.6023   0.9429
     9.6832  10.8165  11.6941  13.8148  15.6444  17.9471  18.7671  19.1338

     occupation numbers 
     1.0000   1.0000   1.0000   1.0000   1.0000   1.0000   1.0000   1.0000
     0.0000   0.0000   0.0000   0.0000   0.0000   0.0000   0.0000   0.0000

          k = 0.6250-0.1250 0.6250 (  1764 PWs)   bands (ev):

   -47.4758 -19.4496 -19.4375 -19.4300 -10.8890  -0.2034   0.4151   1.0036
     9.9724  11.0598  11.7110  13.5377  15.8357  16.2707  19.1355  20.3087

     occupation numbers 
     1.0000   1.0000   1.0000   1.0000   1.0000   1.0000   1.0000   1.0000
     0.0000   0.0000   0.0000   0.0000   0.0000   0.0000   0.0000   0.0000

          k = 0.5000 0.0000 0.5000 (  1780 PWs)   bands (ev):

   -47.4762 -19.4481 -19.4357 -19.4281 -10.9465  -0.1063   0.5764   1.1197
     9.7367  11.2096  11.5454  13.4209  14.8064  17.4239  18.3329  19.9845

     occupation numbers 
     1.0000   1.0000   1.0000   1.0000   1.0000   1.0000   1.0000   1.0000
     0.0000   0.0000   0.0000   0.0000   0.0000   0.0000   0.0000   0.0000

          k = 0.0000 0.7500 0.0000 (  1744 PWs)   bands (ev):

   -47.4755 -19.4459 -19.4334 -19.4334 -10.9302  -0.1751   0.8591   0.8591
     9.2092   9.8156  12.2622  15.3958  15.3958  16.5555  19.9841  19.9841

     occupation numbers 
     1.0000   1.0000   1.0000   1.0000   1.0000   1.0000   1.0000   1.0000
     0.0000   0.0000   0.0000   0.0000   0.0000   0.0000   0.0000   0.0000

          k = 0.8750-0.1250 0.8750 (  1755 PWs)   bands (ev):

   -47.4755 -19.4469 -19.4362 -19.4337 -10.8841  -0.2368   0.6427   0.8249
     9.3563   9.8904  12.4225  15.1665  15.7987  17.8402  18.7803  18.7934

     occupation numbers 
     1.0000   1.0000   1.0000   1.0000   1.0000   1.0000   1.0000   1.0000
     0.0000   0.0000   0.0000   0.0000   0.0000   0.0000   0.0000   0.0000

          k = 0.7500 0.0000 0.7500 (  1752 PWs)   bands (ev):

   -47.4755 -19.4441 -19.4423 -19.4323 -10.8670  -0.0612   0.2413   0.8827
     9.7550  10.5669  12.1048  14.3969  15.1587  17.1633  19.7519  19.8530

     occupation numbers 
     1.0000   1.0000   1.0000   1.0000   1.0000   1.0000   1.0000   1.0000
     0.0000   0.0000   0.0000   0.0000   0.0000   0.0000   0.0000   0.0000

          k = 0.0000-1.0000 0.0000 (  1756 PWs)   bands (ev):

   -47.4755 -19.4479 -19.4347 -19.4347 -10.8763  -0.3241   0.7778   0.7778
     9.0664   9.5426  12.8866  16.3946  16.3946  16.9861  18.7297  18.7297

     occupation numbers 
     1.0000   1.0000   1.0000   1.0000   1.0000   1.0000   1.0000   1.0000
     0.0000   0.0000   0.0000   0.0000   0.0000   0.0000   0.0000   0.0000

          k =-0.2500 0.5000 0.0000 (  1769 PWs)   bands (ev):

   -47.4762 -19.4437 -19.4318 -19.4283 -11.0302   0.1097   0.9129   1.1347
     8.9694  10.8624  12.1100  13.7811  14.1617  16.4204  19.6900  19.8528

     occupation numbers 
     1.0000   1.0000   1.0000   1.0000   1.0000   1.0000   1.0000   1.0000
     0.0000   0.0000   0.0000   0.0000   0.0000   0.0000   0.0000   0.0000

          k = 0.6250-0.3750 0.8750 (  1768 PWs)   bands (ev):

   -47.4760 -19.4493 -19.4342 -19.4297 -10.9335  -0.1911   0.6850   1.0237
     9.6874  11.1088  11.4902  13.5008  15.3365  17.7377  18.2174  19.3909

     occupation numbers 
     1.0000   1.0000   1.0000   1.0000   1.0000   1.0000   1.0000   1.0000
     0.0000   0.0000   0.0000   0.0000   0.0000   0.0000   0.0000   0.0000

          k = 0.5000-0.2500 0.7500 (  1762 PWs)   bands (ev):

   -47.4758 -19.4517 -19.4347 -19.4305 -10.8926  -0.3125   0.6045   0.9687
     9.8310  11.1137  11.8033  13.3120  15.9679  17.2612  18.3411  19.5323

     occupation numbers 
     1.0000   1.0000   1.0000   1.0000   1.0000   1.0000   1.0000   1.0000
     0.0000   0.0000   0.0000   0.0000   0.0000   0.0000   0.0000   0.0000

          k = 0.7500-0.2500 1.0000 (  1753 PWs)   bands (ev):

   -47.4756 -19.4466 -19.4352 -19.4329 -10.9118  -0.1493   0.6741   0.8463
     9.7219  10.2602  11.7281  14.3644  15.5715  17.7381  18.3729  20.0048

     occupation numbers 
     1.0000   1.0000   1.0000   1.0000   1.0000   1.0000   1.0000   1.0000
     0.0000   0.0000   0.0000   0.0000   0.0000   0.0000   0.0000   0.0000

          k = 0.6250-0.1250 0.8750 (  1760 PWs)   bands (ev):

   -47.4756 -19.4459 -19.4390 -19.4336 -10.8709  -0.0801   0.3560   0.7907
    10.1197  10.6993  11.6273  13.6714  15.9837  17.5636  18.3550  19.8222

     occupation numbers 
     1.0000   1.0000   1.0000   1.0000   1.0000   1.0000   1.0000   1.0000
     0.0000   0.0000   0.0000   0.0000   0.0000   0.0000   0.0000   0.0000

          k = 0.5000 0.0000 0.7500 (  1768 PWs)   bands (ev):

   -47.4758 -19.4464 -19.4396 -19.4318 -10.8801  -0.0411   0.2793   0.8819
    10.5644  10.7617  11.2565  13.5610  16.1395  16.2421  19.3146  20.0542

     occupation numbers 
     1.0000   1.0000   1.0000   1.0000   1.0000   1.0000   1.0000   1.0000
     0.0000   0.0000   0.0000   0.0000   0.0000   0.0000   0.0000   0.0000

          k =-0.2500-1.0000 0.0000 (  1762 PWs)   bands (ev):

   -47.4756 -19.4459 -19.4366 -19.4359 -10.8672  -0.1901   0.5813   0.6955
     9.5968  10.0409  12.3965  14.3457  16.6334  17.8535  18.3027  18.7616

     occupation numbers 
     1.0000   1.0000   1.0000   1.0000   1.0000   1.0000   1.0000   1.0000
     0.0000   0.0000   0.0000   0.0000   0.0000   0.0000   0.0000   0.0000

          k =-0.5000-1.0000 0.0000 (  1768 PWs)   bands (ev):

   -47.4757 -19.4413 -19.4413 -19.4370 -10.8580   0.1655   0.1655   0.6161
    10.3922  11.2225  11.2225  12.9323  17.3466  17.3466  18.0057  18.7947

     occupation numbers 
     1.0000   1.0000   1.0000   1.0000   1.0000   1.0000   1.0000   1.0000
     0.0000   0.0000   0.0000   0.0000   0.0000   0.0000   0.0000   0.0000

     highest occupied, lowest unoccupied level (ev):     1.3957    6.6090

!    total energy              =    -115.65251012 Ry
     estimated scf accuracy    <          9.1E-14 Ry

     The total energy is the sum of the following terms:
     one-electron contribution =     -62.68902747 Ry
     hartree contribution      =      34.90556045 Ry
     xc contribution           =     -18.50950340 Ry
     ewald contribution        =     -69.35953971 Ry

     convergence has been achieved in   9 iterations

     Writing all to output data dir ./out/nacl.save/ :
     XML data file, charge density, pseudopotentials, collected wavefunctions

     init_run     :      4.77s CPU      0.97s WALL (       1 calls)
     electrons    :    101.34s CPU     15.15s WALL (       1 calls)

     Called by init_run:
     wfcinit      :      4.00s CPU      0.70s WALL (       1 calls)
     wfcinit:wfcr :      3.83s CPU      0.67s WALL (      29 calls)
     potinit      :      0.06s CPU      0.02s WALL (       1 calls)
     hinit0       :      0.67s CPU      0.25s WALL (       1 calls)

     Called by electrons:
     c_bands      :     89.33s CPU     12.95s WALL (      10 calls)
     sum_band     :     11.84s CPU      2.15s WALL (      10 calls)
     v_of_rho     :      0.15s CPU      0.04s WALL (      10 calls)
     v_h          :      0.00s CPU      0.00s WALL (      10 calls)
     v_xc         :      0.14s CPU      0.04s WALL (      10 calls)
     mix_rho      :      0.03s CPU      0.01s WALL (      10 calls)

     Called by c_bands:
     init_us_2    :      0.89s CPU      0.11s WALL (     609 calls)
     cegterg      :     88.12s CPU     12.81s WALL (     290 calls)

     Called by sum_band:
     sum_band:wei :      0.00s CPU      0.00s WALL (      10 calls)
     sum_band:loo :     11.78s CPU      2.14s WALL (      10 calls)
     sum_band:buf :      0.04s CPU      0.01s WALL (     290 calls)
     sum_band:ini :      0.31s CPU      0.05s WALL (     290 calls)

     Called by *egterg:
     cdiaghg      :      1.30s CPU      0.20s WALL (    1199 calls)
     cegterg:over :      0.72s CPU      0.13s WALL (     938 calls)
     cegterg:upda :      0.50s CPU      0.08s WALL (     938 calls)
     cegterg:last :      0.72s CPU      0.10s WALL (     690 calls)
     h_psi        :     87.60s CPU     12.79s WALL (    1257 calls)
     g_psi        :      0.34s CPU      0.07s WALL (     938 calls)

     Called by h_psi:
     h_psi:calbec :      0.68s CPU      0.10s WALL (    1257 calls)
     vloc_psi     :     86.42s CPU     12.61s WALL (    1257 calls)
                                        0.00s GPU  (    1257 calls)
     add_vuspsi   :      0.38s CPU      0.05s WALL (    1257 calls)

     General routines
     calbec       :      0.65s CPU      0.10s WALL (    1257 calls)
     fft          :      0.46s CPU      0.19s WALL (     100 calls)
     ffts         :      0.00s CPU      0.00s WALL (      10 calls)
     fftw         :     89.91s CPU     13.50s WALL (   31524 calls)


     PWSCF        :   1m46.20s CPU     16.15s WALL


   This run was terminated on:  16:21:12  16Jun2026            

=------------------------------------------------------------------------------=
   JOB DONE.
=------------------------------------------------------------------------------=
