
     Program PWSCF v.7.5 starts on 25Jun2026 at  9:50:51 

     This program is part of the open-source Quantum ESPRESSO suite
     for quantum simulation of materials; please cite
         "P. Giannozzi et al., J. Phys.:Condens. Matter 21 395502 (2009);
         "P. Giannozzi et al., J. Phys.:Condens. Matter 29 465901 (2017);
         "P. Giannozzi et al., J. Chem. Phys. 152 154105 (2020);
          URL http://www.quantum-espresso.org", 
     in publications or presentations arising from this work. More details at
     http://www.quantum-espresso.org/quote

     Parallel version (MPI & OpenMP), running on       4 processor cores
     Number of MPI processes:                 4
     Threads/MPI process:                     1

     MPI processes distributed on     1 nodes
     13658 MiB available memory on the printing compute node when the environment starts

     Reading input from lif.fg.in

     Current dimensions of program PWSCF are:
     Max number of different atomic species (ntypx) = 10
     Max number of k-points (npk) =  40000
     Max angular momentum in pseudopotentials (lmaxx) =  4

     IMPORTANT: XC functional enforced from input :
     Exchange-correlation= HSE
                           (   1   4  12   4   0   0   0)
     EXX-fraction              =        0.25
     Any further DFT definition will be discarded
     Please, verify this is what you really want

     EXX Screening parameter changed:    0.7250000
     EXX fraction changed:   1.00
     DD-RSH-CAM (LMODELHF) semilocal: AEXX, BEXX =   0.4899  0.8123
     DD-RSH-CAM (LMODELHF) enabled
     AEXX =  0.4899   BEXX =  0.8123   mu(bohr^-1) =  0.7250

     R & G space division:  proc/nbgrp/npool/nimage =       4
     Subspace diagonalization in iterative solution of the eigenvalue problem:
     a serial algorithm will be used

     EXX: q-point mesh:     6    6    6
     EXX: setup a grid of 216 q-points centered on each k-point
     (k+q)-points:
   0.0000000   0.0000000   0.0000000         1    1
  -0.1666667   0.1666667  -0.1666667         2    1
  -0.3333333   0.3333333  -0.3333333         3    1
   0.5000000  -0.5000000   0.5000000         4    1
   0.3333333  -0.3333333   0.3333333         3   -1
   0.1666667  -0.1666667   0.1666667         2   -1
   0.1666667   0.1666667   0.1666667         2    3
   0.0000000   0.3333333   0.0000000         5    1
  -0.1666667   0.5000000  -0.1666667         6    1
   0.6666667  -0.3333333   0.6666667         7    1
   0.5000000  -0.1666667   0.5000000         8    1
   0.3333333   0.0000000   0.3333333         9    1
   0.3333333   0.3333333   0.3333333         3    3
   0.1666667   0.5000000   0.1666667         6    3
   0.0000000   0.6666667   0.0000000        10    1
   0.8333333  -0.1666667   0.8333333        11    1
   0.6666667   0.0000000   0.6666667        12    1
   0.5000000   0.1666667   0.5000000         8   -3
  -0.5000000  -0.5000000  -0.5000000         4    3
  -0.6666667  -0.3333333  -0.6666667         7    3
  -0.8333333  -0.1666667  -0.8333333        11    3
   0.0000000  -1.0000000   0.0000000        13    1
   0.8333333   0.1666667   0.8333333        11   -3
   0.6666667   0.3333333   0.6666667         7   -3
  -0.3333333  -0.3333333  -0.3333333         3   -3
  -0.5000000  -0.1666667  -0.5000000         8    3
  -0.6666667   0.0000000  -0.6666667        12   -1
  -0.8333333   0.1666667  -0.8333333        11   -1
   0.0000000  -0.6666667   0.0000000        10   -1
  -0.1666667  -0.5000000  -0.1666667         6   -3
  -0.1666667  -0.1666667  -0.1666667         2   -3
  -0.3333333   0.0000000  -0.3333333         9   -1
  -0.5000000   0.1666667  -0.5000000         8   -1
  -0.6666667   0.3333333  -0.6666667         7   -1
   0.1666667  -0.5000000   0.1666667         6   -1
   0.0000000  -0.3333333   0.0000000         5   -1
  -0.1666667  -0.1666667   0.1666667         2    4
  -0.3333333   0.0000000   0.0000000         5   -5
  -0.5000000   0.1666667  -0.1666667         6   -5
   0.3333333  -0.6666667   0.6666667         7   -5
   0.1666667  -0.5000000   0.5000000         8   -5
   0.0000000  -0.3333333   0.3333333         9   -5
   0.0000000   0.0000000   0.3333333         5   13
  -0.1666667   0.1666667   0.1666667         2   -2
  -0.3333333   0.3333333   0.0000000         9   13
  -0.5000000   0.5000000  -0.1666667         8   13
  -0.6666667   0.6666667  -0.3333333         7   13
   0.1666667  -0.1666667   0.5000000         6   13
   0.1666667   0.1666667   0.5000000         6  -16
   0.0000000   0.3333333   0.3333333         9   -6
  -0.1666667   0.5000000   0.1666667         6   -2
   0.6666667  -0.3333333   1.0000000        14    1
   0.5000000  -0.1666667   0.8333333        15    1
  -0.6666667   1.0000000  -0.3333333        14   13
  -0.6666667  -0.6666667  -0.3333333         7  -16
   0.1666667   0.5000000   0.5000000         8    7
  -1.0000000  -0.3333333  -0.6666667        14   -9
   0.8333333  -0.1666667  -0.8333333        11   -2
  -0.3333333  -1.0000000   0.0000000        16    1
   0.5000000   0.1666667   0.8333333        15   -3
  -0.5000000  -0.5000000  -0.1666667         8  -16
   0.3333333   0.6666667   0.6666667         7    7
  -0.8333333  -0.1666667  -0.5000000        15   -9
   0.0000000  -1.0000000   0.3333333        16   -9
   0.8333333   0.1666667  -0.8333333        11    4
   0.6666667   0.3333333   1.0000000        14   -3
  -0.3333333  -0.3333333   0.0000000         9   14
  -0.5000000  -0.1666667  -0.1666667         6    7
   0.3333333  -1.0000000   0.6666667        14   22
  -0.8333333   0.1666667  -0.5000000        15   10
  -1.0000000   0.3333333  -0.6666667        14   10
  -0.1666667  -0.5000000   0.1666667         6    4
  -0.3333333  -0.3333333   0.3333333         3    4
  -0.5000000  -0.1666667   0.1666667         6   -8
  -0.6666667   0.0000000   0.0000000        10   -5
   0.1666667  -0.8333333   0.8333333        11   -5
   0.0000000  -0.6666667   0.6666667        12   -5
  -0.1666667  -0.5000000   0.5000000         8    8
  -0.1666667  -0.1666667   0.5000000         6  -14
  -0.3333333   0.0000000   0.3333333         9    2
  -0.5000000   0.1666667   0.1666667         6    6
   0.3333333  -0.6666667   1.0000000        14   -5
   0.1666667  -0.5000000   0.8333333        15   -5
   1.0000000   0.6666667  -0.3333333        14   17
   0.0000000   0.0000000   0.6666667        10   13
  -0.1666667   0.1666667   0.5000000         6   15
  -0.3333333   0.3333333   0.3333333         3   -2
  -0.5000000   0.5000000   0.1666667         8  -15
  -0.6666667   0.6666667   0.0000000        12   13
  -0.8333333   0.8333333  -0.1666667        11   13
  -0.8333333  -0.8333333  -0.1666667        11  -16
  -1.0000000  -0.6666667  -0.3333333        14   18
  -0.1666667   0.5000000   0.5000000         8   -6
   0.6666667  -0.3333333  -0.6666667         7   -2
   0.5000000  -0.1666667  -0.8333333        15   -2
   0.3333333   0.0000000  -1.0000000        16   13
  -0.6666667  -0.6666667   0.0000000        12   14
   0.1666667   0.5000000   0.8333333        15    7
   0.0000000   0.6666667   0.6666667        12   -6
   0.8333333  -0.1666667  -0.5000000        15   12
   0.6666667   0.0000000  -0.6666667        12   -2
   0.5000000   0.1666667  -0.8333333        15    4
  -0.5000000  -0.5000000   0.1666667         8   14
   0.3333333   0.6666667   1.0000000        14    7
   0.1666667   0.8333333   0.8333333        11    7
  -1.0000000   0.0000000  -0.3333333        16   21
   0.8333333   0.1666667  -0.5000000        15  -11
   0.6666667   0.3333333  -0.6666667         7    4
   0.5000000   0.5000000  -0.5000000         4    4
   0.3333333   0.6666667  -0.6666667         7   -8
   0.1666667   0.8333333  -0.8333333        11   -8
  -1.0000000   0.0000000   0.0000000        13    5
  -0.1666667  -0.8333333   0.8333333        11    8
  -0.3333333  -0.6666667   0.6666667         7    8
   0.6666667   0.6666667  -0.3333333         7  -14
  -0.5000000  -0.1666667   0.5000000         8   -4
   0.3333333  -1.0000000  -0.6666667        14  -21
   0.1666667  -0.8333333  -0.8333333        11    6
   1.0000000   0.3333333   0.0000000        16   -5
  -0.1666667  -0.5000000   0.8333333        15    8
   0.8333333   0.8333333  -0.1666667        11  -14
   0.6666667   1.0000000  -0.3333333        14  -14
  -0.5000000   0.1666667   0.5000000         8    2
   0.3333333  -0.6666667  -0.6666667         7    6
   0.1666667  -0.5000000  -0.8333333        15    6
   0.0000000  -0.3333333  -1.0000000        16   17
   0.0000000   0.0000000  -1.0000000        13   13
   0.8333333  -0.8333333  -0.1666667        11   15
   0.6666667  -0.6666667  -0.3333333         7   15
  -0.5000000   0.5000000   0.5000000         4    2
  -0.6666667   0.6666667   0.3333333         7  -15
  -0.8333333   0.8333333   0.1666667        11  -15
  -0.8333333  -0.8333333   0.1666667        11   14
   0.0000000   0.3333333   1.0000000        16  -17
  -0.1666667   0.5000000   0.8333333        15   -6
  -0.3333333   0.6666667   0.6666667         7   -6
   0.5000000  -0.1666667  -0.5000000         8   -2
  -0.6666667  -1.0000000   0.3333333        14   14
  -0.6666667  -0.6666667   0.3333333         7   14
   0.1666667   0.5000000  -0.8333333        15   -8
  -1.0000000  -0.3333333   0.0000000        16    5
  -0.1666667   0.8333333   0.8333333        11   -6
  -0.3333333   1.0000000   0.6666667        14   21
   0.5000000   0.1666667  -0.5000000         8    4
   0.3333333   0.3333333  -0.3333333         3   -4
   0.1666667   0.5000000  -0.5000000         8   -8
   0.0000000   0.6666667  -0.6666667        12    5
  -0.1666667   0.8333333  -0.8333333        11    5
   0.6666667   0.0000000   0.0000000        10    5
   0.5000000   0.1666667  -0.1666667         6    8
   0.5000000   0.5000000  -0.1666667         8  -14
  -0.6666667  -0.3333333   0.6666667         7   -4
  -0.8333333  -0.1666667   0.5000000        15   11
   1.0000000   0.0000000   0.3333333        16  -21
  -0.1666667  -0.8333333  -0.8333333        11   -7
  -0.3333333  -0.6666667  -1.0000000        14   -7
   0.6666667   0.6666667   0.0000000        12  -14
  -0.5000000  -0.1666667   0.8333333        15   -4
  -0.6666667   0.0000000   0.6666667        12    2
  -0.8333333   0.1666667   0.5000000        15  -12
   0.0000000  -0.6666667  -0.6666667        12    6
  -0.1666667  -0.5000000  -0.8333333        15   -7
   0.8333333   0.8333333   0.1666667        11   16
  -0.3333333   0.0000000   1.0000000        16  -13
  -0.5000000   0.1666667   0.8333333        15    2
  -0.6666667   0.3333333   0.6666667         7    2
   0.1666667  -0.5000000  -0.5000000         8    6
   1.0000000   0.6666667   0.3333333        14  -18
   0.0000000   0.0000000  -0.6666667        10  -13
   0.8333333  -0.8333333   0.1666667        11  -13
   0.6666667  -0.6666667   0.0000000        12  -13
   0.5000000  -0.5000000  -0.1666667         8   15
   0.3333333  -0.3333333  -0.3333333         3    2
   0.1666667  -0.1666667  -0.5000000         6  -15
   0.1666667   0.1666667  -0.5000000         6   14
  -1.0000000  -0.6666667   0.3333333        14  -17
  -0.1666667   0.5000000  -0.8333333        15    5
  -0.3333333   0.6666667  -1.0000000        14    5
   0.5000000  -0.1666667  -0.1666667         6   -6
   0.3333333   0.0000000  -0.3333333         9   -2
   0.1666667   0.1666667  -0.1666667         2   -4
   0.0000000   0.3333333  -0.3333333         9    5
  -0.1666667   0.5000000  -0.5000000         8    5
  -0.3333333   0.6666667  -0.6666667         7    5
   0.5000000  -0.1666667   0.1666667         6    5
   0.3333333   0.0000000   0.0000000         5    5
   0.3333333   0.3333333   0.0000000         9  -14
   0.1666667   0.5000000  -0.1666667         6   -4
   1.0000000  -0.3333333   0.6666667        14  -10
   0.8333333  -0.1666667   0.5000000        15  -10
  -0.3333333   1.0000000  -0.6666667        14  -22
   0.5000000   0.1666667   0.1666667         6   -7
   0.5000000   0.5000000   0.1666667         8   16
  -0.6666667  -0.3333333  -1.0000000        14    3
  -0.8333333  -0.1666667   0.8333333        11   -4
   0.0000000   1.0000000  -0.3333333        16    9
   0.8333333   0.1666667   0.5000000        15    9
  -0.3333333  -0.6666667  -0.6666667         7   -7
   0.6666667   0.6666667   0.3333333         7   16
  -0.5000000  -0.1666667  -0.8333333        15    3
   0.3333333   1.0000000   0.0000000        16   -1
  -0.8333333   0.1666667   0.8333333        11    2
   1.0000000   0.3333333   0.6666667        14    9
  -0.1666667  -0.5000000  -0.5000000         8   -7
  -0.1666667  -0.1666667  -0.5000000         6   16
   0.6666667  -1.0000000   0.3333333        14  -13
  -0.5000000   0.1666667  -0.8333333        15   -1
  -0.6666667   0.3333333  -1.0000000        14   -1
   0.1666667  -0.5000000  -0.1666667         6    2
   0.0000000  -0.3333333  -0.3333333         9    6
   0.0000000   0.0000000  -0.3333333         5  -13
  -0.1666667   0.1666667  -0.5000000         6  -13
   0.6666667  -0.6666667   0.3333333         7  -13
   0.5000000  -0.5000000   0.1666667         8  -13
   0.3333333  -0.3333333   0.0000000         9  -13
   0.1666667  -0.1666667  -0.1666667         2    2

     Parallelization info
     --------------------
     sticks:   dense  smooth     PW     G-vecs:    dense   smooth      PW
     Min         162     162     49                 2693     2693     457
     Max         163     163     50                 2695     2695     460
     Sum         649     649    199                10777    10777    1837

     Using Slab Decomposition



     bravais-lattice index     =            2
     lattice parameter (alat)  =       7.6050  a.u.
     unit-cell volume          =     109.9607 (a.u.)^3
     number of atoms/cell      =            2
     number of atomic types    =            2
     number of electrons       =        10.00
     number of Kohn-Sham states=           12
     kinetic-energy cutoff     =      80.0000  Ry
     charge density cutoff     =     320.0000  Ry
     cutoff for Fock operator  =     320.0000  Ry
     scf convergence threshold =      1.0E-08
     mixing beta               =       0.7000
     number of iterations used =            8  plain     mixing
     Exchange-correlation= HSE
                           (   1   4  12   4   0   0   0)
     EXX-fraction              =        1.00

     celldm(1)=   7.605000  celldm(2)=   0.000000  celldm(3)=   0.000000
     celldm(4)=   0.000000  celldm(5)=   0.000000  celldm(6)=   0.000000

     crystal axes: (cart. coord. in units of alat)
               a(1) = (  -0.500000   0.000000   0.500000 )  
               a(2) = (   0.000000   0.500000   0.500000 )  
               a(3) = (  -0.500000   0.500000   0.000000 )  

     reciprocal axes: (cart. coord. in units 2 pi/alat)
               b(1) = ( -1.000000 -1.000000  1.000000 )  
               b(2) = (  1.000000  1.000000  1.000000 )  
               b(3) = ( -1.000000  1.000000 -1.000000 )  


     PseudoPot. # 1 for Li read from file:
     ../../../../pseudos/Li_ONCV_PBE-1.2.upf
     MD5 check sum: c91dd4cee9943b136ac3b62641658f95
     Pseudo is Norm-conserving, Zval =  3.0
     Generated using ONCVPSP code by D. R. Hamann
     Using radial grid of  602 points,  4 beta functions with: 
                l(1) =   0
                l(2) =   0
                l(3) =   1
                l(4) =   1

     PseudoPot. # 2 for F  read from file:
     ../../../../pseudos/F_ONCV_PBE-1.2.upf
     MD5 check sum: 1d8275f47d602dd53cad6bcdc0eda7dc
     Pseudo is Norm-conserving, Zval =  7.0
     Generated using ONCVPSP code by D. R. Hamann
     Using radial grid of  602 points,  4 beta functions with: 
                l(1) =   0
                l(2) =   0
                l(3) =   1
                l(4) =   1

     atomic species   valence    mass     pseudopotential
     Li                3.00     6.94100     Li( 1.00)
     F                 7.00    18.99800     F ( 1.00)

     48 Sym. Ops., with inversion, found


                                    s                        frac. trans.

      isym =  1     identity                                     

 cryst.   s( 1) = (     1          0          0      )
                  (     0          1          0      )
                  (     0          0          1      )

 cart.    s( 1) = (  1.0000000  0.0000000  0.0000000 )
                  (  0.0000000  1.0000000  0.0000000 )
                  (  0.0000000  0.0000000  1.0000000 )


      isym =  2     180 deg rotation - cart. axis [0,0,1]        

 cryst.   s( 2) = (     0          1         -1      )
                  (     1          0         -1      )
                  (     0          0         -1      )

 cart.    s( 2) = ( -1.0000000  0.0000000  0.0000000 )
                  (  0.0000000 -1.0000000  0.0000000 )
                  (  0.0000000  0.0000000  1.0000000 )


      isym =  3     180 deg rotation - cart. axis [0,1,0]        

 cryst.   s( 3) = (    -1          0          0      )
                  (    -1          0          1      )
                  (    -1          1          0      )

 cart.    s( 3) = ( -1.0000000  0.0000000  0.0000000 )
                  (  0.0000000  1.0000000  0.0000000 )
                  (  0.0000000  0.0000000 -1.0000000 )


      isym =  4     180 deg rotation - cart. axis [1,0,0]        

 cryst.   s( 4) = (     0         -1          1      )
                  (     0         -1          0      )
                  (     1         -1          0      )

 cart.    s( 4) = (  1.0000000  0.0000000  0.0000000 )
                  (  0.0000000 -1.0000000  0.0000000 )
                  (  0.0000000  0.0000000 -1.0000000 )


      isym =  5     180 deg rotation - cart. axis [1,1,0]        

 cryst.   s( 5) = (     0         -1          0      )
                  (    -1          0          0      )
                  (     0          0         -1      )

 cart.    s( 5) = (  0.0000000  1.0000000  0.0000000 )
                  (  1.0000000  0.0000000  0.0000000 )
                  (  0.0000000  0.0000000 -1.0000000 )


      isym =  6     180 deg rotation - cart. axis [1,-1,0]       

 cryst.   s( 6) = (    -1          0          1      )
                  (     0         -1          1      )
                  (     0          0          1      )

 cart.    s( 6) = (  0.0000000 -1.0000000  0.0000000 )
                  ( -1.0000000  0.0000000  0.0000000 )
                  (  0.0000000  0.0000000 -1.0000000 )


      isym =  7      90 deg rotation - cart. axis [0,0,-1]       

 cryst.   s( 7) = (     0          1          0      )
                  (     0          1         -1      )
                  (    -1          1          0      )

 cart.    s( 7) = (  0.0000000  1.0000000  0.0000000 )
                  ( -1.0000000  0.0000000  0.0000000 )
                  (  0.0000000  0.0000000  1.0000000 )


      isym =  8      90 deg rotation - cart. axis [0,0,1]        

 cryst.   s( 8) = (     1          0         -1      )
                  (     1          0          0      )
                  (     1         -1          0      )

 cart.    s( 8) = (  0.0000000 -1.0000000  0.0000000 )
                  (  1.0000000  0.0000000  0.0000000 )
                  (  0.0000000  0.0000000  1.0000000 )


      isym =  9     180 deg rotation - cart. axis [1,0,1]        

 cryst.   s( 9) = (    -1          0          0      )
                  (     0          0         -1      )
                  (     0         -1          0      )

 cart.    s( 9) = (  0.0000000  0.0000000  1.0000000 )
                  (  0.0000000 -1.0000000  0.0000000 )
                  (  1.0000000  0.0000000  0.0000000 )


      isym = 10     180 deg rotation - cart. axis [-1,0,1]       

 cryst.   s(10) = (     1          0          0      )
                  (     1         -1          0      )
                  (     1          0         -1      )

 cart.    s(10) = (  0.0000000  0.0000000 -1.0000000 )
                  (  0.0000000 -1.0000000  0.0000000 )
                  ( -1.0000000  0.0000000  0.0000000 )


      isym = 11      90 deg rotation - cart. axis [0,1,0]        

 cryst.   s(11) = (     0          1         -1      )
                  (    -1          1          0      )
                  (     0          1          0      )

 cart.    s(11) = (  0.0000000  0.0000000  1.0000000 )
                  (  0.0000000  1.0000000  0.0000000 )
                  ( -1.0000000  0.0000000  0.0000000 )


      isym = 12      90 deg rotation - cart. axis [0,-1,0]       

 cryst.   s(12) = (     0         -1          1      )
                  (     0          0          1      )
                  (    -1          0          1      )

 cart.    s(12) = (  0.0000000  0.0000000 -1.0000000 )
                  (  0.0000000  1.0000000  0.0000000 )
                  (  1.0000000  0.0000000  0.0000000 )


      isym = 13     180 deg rotation - cart. axis [0,1,1]        

 cryst.   s(13) = (    -1          1          0      )
                  (     0          1          0      )
                  (     0          1         -1      )

 cart.    s(13) = ( -1.0000000  0.0000000  0.0000000 )
                  (  0.0000000  0.0000000  1.0000000 )
                  (  0.0000000  1.0000000  0.0000000 )


      isym = 14     180 deg rotation - cart. axis [0,1,-1]       

 cryst.   s(14) = (     0          0         -1      )
                  (     0         -1          0      )
                  (    -1          0          0      )

 cart.    s(14) = ( -1.0000000  0.0000000  0.0000000 )
                  (  0.0000000  0.0000000 -1.0000000 )
                  (  0.0000000 -1.0000000  0.0000000 )


      isym = 15      90 deg rotation - cart. axis [-1,0,0]       

 cryst.   s(15) = (     0          0          1      )
                  (    -1          0          1      )
                  (     0         -1          1      )

 cart.    s(15) = (  1.0000000  0.0000000  0.0000000 )
                  (  0.0000000  0.0000000  1.0000000 )
                  (  0.0000000 -1.0000000  0.0000000 )


      isym = 16      90 deg rotation - cart. axis [1,0,0]        

 cryst.   s(16) = (     1         -1          0      )
                  (     1          0         -1      )
                  (     1          0          0      )

 cart.    s(16) = (  1.0000000  0.0000000  0.0000000 )
                  (  0.0000000  0.0000000 -1.0000000 )
                  (  0.0000000  1.0000000  0.0000000 )


      isym = 17     120 deg rotation - cart. axis [-1,-1,-1]     

 cryst.   s(17) = (    -1          0          1      )
                  (    -1          1          0      )
                  (    -1          0          0      )

 cart.    s(17) = (  0.0000000  1.0000000  0.0000000 )
                  (  0.0000000  0.0000000  1.0000000 )
                  (  1.0000000  0.0000000  0.0000000 )


      isym = 18     120 deg rotation - cart. axis [-1,1,1]       

 cryst.   s(18) = (     0          1          0      )
                  (     0          0          1      )
                  (     1          0          0      )

 cart.    s(18) = (  0.0000000 -1.0000000  0.0000000 )
                  (  0.0000000  0.0000000  1.0000000 )
                  ( -1.0000000  0.0000000  0.0000000 )


      isym = 19     120 deg rotation - cart. axis [1,1,-1]       

 cryst.   s(19) = (     1          0         -1      )
                  (     0          0         -1      )
                  (     0          1         -1      )

 cart.    s(19) = (  0.0000000  1.0000000  0.0000000 )
                  (  0.0000000  0.0000000 -1.0000000 )
                  ( -1.0000000  0.0000000  0.0000000 )


      isym = 20     120 deg rotation - cart. axis [1,-1,1]       

 cryst.   s(20) = (     0         -1          0      )
                  (     1         -1          0      )
                  (     0         -1          1      )

 cart.    s(20) = (  0.0000000 -1.0000000  0.0000000 )
                  (  0.0000000  0.0000000 -1.0000000 )
                  (  1.0000000  0.0000000  0.0000000 )


      isym = 21     120 deg rotation - cart. axis [1,1,1]        

 cryst.   s(21) = (     0          0         -1      )
                  (     0          1         -1      )
                  (     1          0         -1      )

 cart.    s(21) = (  0.0000000  0.0000000  1.0000000 )
                  (  1.0000000  0.0000000  0.0000000 )
                  (  0.0000000  1.0000000  0.0000000 )


      isym = 22     120 deg rotation - cart. axis [-1,1,-1]      

 cryst.   s(22) = (    -1          1          0      )
                  (    -1          0          0      )
                  (    -1          0          1      )

 cart.    s(22) = (  0.0000000  0.0000000  1.0000000 )
                  ( -1.0000000  0.0000000  0.0000000 )
                  (  0.0000000 -1.0000000  0.0000000 )


      isym = 23     120 deg rotation - cart. axis [1,-1,-1]      

 cryst.   s(23) = (     0          0          1      )
                  (     1          0          0      )
                  (     0          1          0      )

 cart.    s(23) = (  0.0000000  0.0000000 -1.0000000 )
                  ( -1.0000000  0.0000000  0.0000000 )
                  (  0.0000000  1.0000000  0.0000000 )


      isym = 24     120 deg rotation - cart. axis [-1,-1,1]      

 cryst.   s(24) = (     1         -1          0      )
                  (     0         -1          1      )
                  (     0         -1          0      )

 cart.    s(24) = (  0.0000000  0.0000000 -1.0000000 )
                  (  1.0000000  0.0000000  0.0000000 )
                  (  0.0000000 -1.0000000  0.0000000 )


      isym = 25     inversion                                    

 cryst.   s(25) = (    -1          0          0      )
                  (     0         -1          0      )
                  (     0          0         -1      )

 cart.    s(25) = ( -1.0000000  0.0000000  0.0000000 )
                  (  0.0000000 -1.0000000  0.0000000 )
                  (  0.0000000  0.0000000 -1.0000000 )


      isym = 26     inv. 180 deg rotation - cart. axis [0,0,1]   

 cryst.   s(26) = (     0         -1          1      )
                  (    -1          0          1      )
                  (     0          0          1      )

 cart.    s(26) = (  1.0000000  0.0000000  0.0000000 )
                  (  0.0000000  1.0000000  0.0000000 )
                  (  0.0000000  0.0000000 -1.0000000 )


      isym = 27     inv. 180 deg rotation - cart. axis [0,1,0]   

 cryst.   s(27) = (     1          0          0      )
                  (     1          0         -1      )
                  (     1         -1          0      )

 cart.    s(27) = (  1.0000000  0.0000000  0.0000000 )
                  (  0.0000000 -1.0000000  0.0000000 )
                  (  0.0000000  0.0000000  1.0000000 )


      isym = 28     inv. 180 deg rotation - cart. axis [1,0,0]   

 cryst.   s(28) = (     0          1         -1      )
                  (     0          1          0      )
                  (    -1          1          0      )

 cart.    s(28) = ( -1.0000000  0.0000000  0.0000000 )
                  (  0.0000000  1.0000000  0.0000000 )
                  (  0.0000000  0.0000000  1.0000000 )


      isym = 29     inv. 180 deg rotation - cart. axis [1,1,0]   

 cryst.   s(29) = (     0          1          0      )
                  (     1          0          0      )
                  (     0          0          1      )

 cart.    s(29) = (  0.0000000 -1.0000000  0.0000000 )
                  ( -1.0000000  0.0000000  0.0000000 )
                  (  0.0000000  0.0000000  1.0000000 )


      isym = 30     inv. 180 deg rotation - cart. axis [1,-1,0]  

 cryst.   s(30) = (     1          0         -1      )
                  (     0          1         -1      )
                  (     0          0         -1      )

 cart.    s(30) = (  0.0000000  1.0000000  0.0000000 )
                  (  1.0000000  0.0000000  0.0000000 )
                  (  0.0000000  0.0000000  1.0000000 )


      isym = 31     inv.  90 deg rotation - cart. axis [0,0,-1]  

 cryst.   s(31) = (     0         -1          0      )
                  (     0         -1          1      )
                  (     1         -1          0      )

 cart.    s(31) = (  0.0000000 -1.0000000  0.0000000 )
                  (  1.0000000  0.0000000  0.0000000 )
                  (  0.0000000  0.0000000 -1.0000000 )


      isym = 32     inv.  90 deg rotation - cart. axis [0,0,1]   

 cryst.   s(32) = (    -1          0          1      )
                  (    -1          0          0      )
                  (    -1          1          0      )

 cart.    s(32) = (  0.0000000  1.0000000  0.0000000 )
                  ( -1.0000000  0.0000000  0.0000000 )
                  (  0.0000000  0.0000000 -1.0000000 )


      isym = 33     inv. 180 deg rotation - cart. axis [1,0,1]   

 cryst.   s(33) = (     1          0          0      )
                  (     0          0          1      )
                  (     0          1          0      )

 cart.    s(33) = (  0.0000000  0.0000000 -1.0000000 )
                  (  0.0000000  1.0000000  0.0000000 )
                  ( -1.0000000  0.0000000  0.0000000 )


      isym = 34     inv. 180 deg rotation - cart. axis [-1,0,1]  

 cryst.   s(34) = (    -1          0          0      )
                  (    -1          1          0      )
                  (    -1          0          1      )

 cart.    s(34) = (  0.0000000  0.0000000  1.0000000 )
                  (  0.0000000  1.0000000  0.0000000 )
                  (  1.0000000  0.0000000  0.0000000 )


      isym = 35     inv.  90 deg rotation - cart. axis [0,1,0]   

 cryst.   s(35) = (     0         -1          1      )
                  (     1         -1          0      )
                  (     0         -1          0      )

 cart.    s(35) = (  0.0000000  0.0000000 -1.0000000 )
                  (  0.0000000 -1.0000000  0.0000000 )
                  (  1.0000000  0.0000000  0.0000000 )


      isym = 36     inv.  90 deg rotation - cart. axis [0,-1,0]  

 cryst.   s(36) = (     0          1         -1      )
                  (     0          0         -1      )
                  (     1          0         -1      )

 cart.    s(36) = (  0.0000000  0.0000000  1.0000000 )
                  (  0.0000000 -1.0000000  0.0000000 )
                  ( -1.0000000  0.0000000  0.0000000 )


      isym = 37     inv. 180 deg rotation - cart. axis [0,1,1]   

 cryst.   s(37) = (     1         -1          0      )
                  (     0         -1          0      )
                  (     0         -1          1      )

 cart.    s(37) = (  1.0000000  0.0000000  0.0000000 )
                  (  0.0000000  0.0000000 -1.0000000 )
                  (  0.0000000 -1.0000000  0.0000000 )


      isym = 38     inv. 180 deg rotation - cart. axis [0,1,-1]  

 cryst.   s(38) = (     0          0          1      )
                  (     0          1          0      )
                  (     1          0          0      )

 cart.    s(38) = (  1.0000000  0.0000000  0.0000000 )
                  (  0.0000000  0.0000000  1.0000000 )
                  (  0.0000000  1.0000000  0.0000000 )


      isym = 39     inv.  90 deg rotation - cart. axis [-1,0,0]  

 cryst.   s(39) = (     0          0         -1      )
                  (     1          0         -1      )
                  (     0          1         -1      )

 cart.    s(39) = ( -1.0000000  0.0000000  0.0000000 )
                  (  0.0000000  0.0000000 -1.0000000 )
                  (  0.0000000  1.0000000  0.0000000 )


      isym = 40     inv.  90 deg rotation - cart. axis [1,0,0]   

 cryst.   s(40) = (    -1          1          0      )
                  (    -1          0          1      )
                  (    -1          0          0      )

 cart.    s(40) = ( -1.0000000  0.0000000  0.0000000 )
                  (  0.0000000  0.0000000  1.0000000 )
                  (  0.0000000 -1.0000000  0.0000000 )


      isym = 41     inv. 120 deg rotation - cart. axis [-1,-1,-1]

 cryst.   s(41) = (     1          0         -1      )
                  (     1         -1          0      )
                  (     1          0          0      )

 cart.    s(41) = (  0.0000000 -1.0000000  0.0000000 )
                  (  0.0000000  0.0000000 -1.0000000 )
                  ( -1.0000000  0.0000000  0.0000000 )


      isym = 42     inv. 120 deg rotation - cart. axis [-1,1,1]  

 cryst.   s(42) = (     0         -1          0      )
                  (     0          0         -1      )
                  (    -1          0          0      )

 cart.    s(42) = (  0.0000000  1.0000000  0.0000000 )
                  (  0.0000000  0.0000000 -1.0000000 )
                  (  1.0000000  0.0000000  0.0000000 )


      isym = 43     inv. 120 deg rotation - cart. axis [1,1,-1]  

 cryst.   s(43) = (    -1          0          1      )
                  (     0          0          1      )
                  (     0         -1          1      )

 cart.    s(43) = (  0.0000000 -1.0000000  0.0000000 )
                  (  0.0000000  0.0000000  1.0000000 )
                  (  1.0000000  0.0000000  0.0000000 )


      isym = 44     inv. 120 deg rotation - cart. axis [1,-1,1]  

 cryst.   s(44) = (     0          1          0      )
                  (    -1          1          0      )
                  (     0          1         -1      )

 cart.    s(44) = (  0.0000000  1.0000000  0.0000000 )
                  (  0.0000000  0.0000000  1.0000000 )
                  ( -1.0000000  0.0000000  0.0000000 )


      isym = 45     inv. 120 deg rotation - cart. axis [1,1,1]   

 cryst.   s(45) = (     0          0          1      )
                  (     0         -1          1      )
                  (    -1          0          1      )

 cart.    s(45) = (  0.0000000  0.0000000 -1.0000000 )
                  ( -1.0000000  0.0000000  0.0000000 )
                  (  0.0000000 -1.0000000  0.0000000 )


      isym = 46     inv. 120 deg rotation - cart. axis [-1,1,-1] 

 cryst.   s(46) = (     1         -1          0      )
                  (     1          0          0      )
                  (     1          0         -1      )

 cart.    s(46) = (  0.0000000  0.0000000 -1.0000000 )
                  (  1.0000000  0.0000000  0.0000000 )
                  (  0.0000000  1.0000000  0.0000000 )


      isym = 47     inv. 120 deg rotation - cart. axis [1,-1,-1] 

 cryst.   s(47) = (     0          0         -1      )
                  (    -1          0          0      )
                  (     0         -1          0      )

 cart.    s(47) = (  0.0000000  0.0000000  1.0000000 )
                  (  1.0000000  0.0000000  0.0000000 )
                  (  0.0000000 -1.0000000  0.0000000 )


      isym = 48     inv. 120 deg rotation - cart. axis [-1,-1,1] 

 cryst.   s(48) = (    -1          1          0      )
                  (     0          1         -1      )
                  (     0          1          0      )

 cart.    s(48) = (  0.0000000  0.0000000  1.0000000 )
                  ( -1.0000000  0.0000000  0.0000000 )
                  (  0.0000000  1.0000000  0.0000000 )


     point group O_h (m-3m) 
     there are 10 classes
     the character table:

       E     8C3   3C2   6C4   6C2'  i     8S6   3s_h  6S4   6s_d 
A_1g   1.00  1.00  1.00  1.00  1.00  1.00  1.00  1.00  1.00  1.00
A_2g   1.00  1.00  1.00 -1.00 -1.00  1.00  1.00  1.00 -1.00 -1.00
E_g    2.00 -1.00  2.00  0.00  0.00  2.00 -1.00  2.00  0.00  0.00
T_1g   3.00  0.00 -1.00  1.00 -1.00  3.00  0.00 -1.00  1.00 -1.00
T_2g   3.00  0.00 -1.00 -1.00  1.00  3.00  0.00 -1.00 -1.00  1.00
A_1u   1.00  1.00  1.00  1.00  1.00 -1.00 -1.00 -1.00 -1.00 -1.00
A_2u   1.00  1.00  1.00 -1.00 -1.00 -1.00 -1.00 -1.00  1.00  1.00
E_u    2.00 -1.00  2.00  0.00  0.00 -2.00  1.00 -2.00  0.00  0.00
T_1u   3.00  0.00 -1.00  1.00 -1.00 -3.00  0.00  1.00 -1.00  1.00
T_2u   3.00  0.00 -1.00 -1.00  1.00 -3.00  0.00  1.00  1.00 -1.00

     the symmetry operations in each class and the name of the first element:

     E        1
          identity                                               
     8C3     17   19   20   18   24   21   22   23
          120 deg rotation - cart. axis [-1,-1,-1]               
     3C2      2    4    3
          180 deg rotation - cart. axis [0,0,1]                  
     6C4      7    8   15   16   12   11
           90 deg rotation - cart. axis [0,0,-1]                 
     6C2'     5    6   14   13   10    9
          180 deg rotation - cart. axis [1,1,0]                  
     i       25
          inversion                                              
     8S6     41   43   44   42   48   45   46   47
          inv. 120 deg rotation - cart. axis [-1,-1,-1]          
     3s_h    26   28   27
          inv. 180 deg rotation - cart. axis [0,0,1]             
     6S4     31   32   39   40   36   35
          inv.  90 deg rotation - cart. axis [0,0,-1]            
     6s_d    29   30   38   37   34   33
          inv. 180 deg rotation - cart. axis [1,1,0]             

   Cartesian axes

     site n.     atom                  positions (alat units)
         1        Li     tau(   1) = (   0.0000000   0.0000000   0.0000000  )
         2        F      tau(   2) = (  -0.5000000   0.5000000   0.5000000  )

   Crystallographic axes

     site n.     atom                  positions (cryst. coord.)
         1        Li     tau(   1) = (  0.0000000  0.0000000  0.0000000  )
         2        F      tau(   2) = (  0.5000000  0.5000000  0.5000000  )

     number of k points=    16
                       cart. coord. in units 2pi/alat
        k(    1) = (   0.0000000   0.0000000   0.0000000), wk =   0.0092593
        k(    2) = (  -0.1666667   0.1666667  -0.1666667), wk =   0.0740741
        k(    3) = (  -0.3333333   0.3333333  -0.3333333), wk =   0.0740741
        k(    4) = (   0.5000000  -0.5000000   0.5000000), wk =   0.0370370
        k(    5) = (   0.0000000   0.3333333   0.0000000), wk =   0.0555556
        k(    6) = (  -0.1666667   0.5000000  -0.1666667), wk =   0.2222222
        k(    7) = (   0.6666667  -0.3333333   0.6666667), wk =   0.2222222
        k(    8) = (   0.5000000  -0.1666667   0.5000000), wk =   0.2222222
        k(    9) = (   0.3333333   0.0000000   0.3333333), wk =   0.1111111
        k(   10) = (   0.0000000   0.6666667   0.0000000), wk =   0.0555556
        k(   11) = (   0.8333333  -0.1666667   0.8333333), wk =   0.2222222
        k(   12) = (   0.6666667  -0.0000000   0.6666667), wk =   0.1111111
        k(   13) = (   0.0000000  -1.0000000   0.0000000), wk =   0.0277778
        k(   14) = (   0.6666667  -0.3333333   1.0000000), wk =   0.2222222
        k(   15) = (   0.5000000  -0.1666667   0.8333333), wk =   0.2222222
        k(   16) = (  -0.3333333  -1.0000000   0.0000000), wk =   0.1111111

                       cryst. coord.
        k(    1) = (   0.0000000   0.0000000   0.0000000), wk =   0.0092593
        k(    2) = (   0.0000000   0.0000000   0.1666667), wk =   0.0740741
        k(    3) = (   0.0000000   0.0000000   0.3333333), wk =   0.0740741
        k(    4) = (   0.0000000   0.0000000  -0.5000000), wk =   0.0370370
        k(    5) = (   0.0000000   0.1666667   0.1666667), wk =   0.0555556
        k(    6) = (   0.0000000   0.1666667   0.3333333), wk =   0.2222222
        k(    7) = (   0.0000000   0.1666667  -0.5000000), wk =   0.2222222
        k(    8) = (   0.0000000   0.1666667  -0.3333333), wk =   0.2222222
        k(    9) = (   0.0000000   0.1666667  -0.1666667), wk =   0.1111111
        k(   10) = (   0.0000000   0.3333333   0.3333333), wk =   0.0555556
        k(   11) = (   0.0000000   0.3333333  -0.5000000), wk =   0.2222222
        k(   12) = (   0.0000000   0.3333333  -0.3333333), wk =   0.1111111
        k(   13) = (   0.0000000  -0.5000000  -0.5000000), wk =   0.0277778
        k(   14) = (   0.1666667   0.3333333  -0.5000000), wk =   0.2222222
        k(   15) = (   0.1666667   0.3333333  -0.3333333), wk =   0.2222222
        k(   16) = (   0.1666667  -0.5000000  -0.3333333), wk =   0.1111111

     Dense  grid:    10777 G-vectors     FFT dimensions: (  32,  32,  32)

     Dynamical RAM for                 wfc:       0.06 MB

     Dynamical RAM for     wfc (w. buffer):       1.03 MB

     Dynamical RAM for                 EXX:     211.96 MB

     Dynamical RAM for           str. fact:       0.08 MB

     Dynamical RAM for           local pot:       0.00 MB

     Dynamical RAM for          nlocal pot:       0.08 MB

     Dynamical RAM for                qrad:       0.91 MB

     Dynamical RAM for          rho,v,vnew:       0.31 MB

     Dynamical RAM for               rhoin:       0.10 MB

     Dynamical RAM for            rho*nmix:       0.66 MB

     Dynamical RAM for           G-vectors:       0.17 MB

     Dynamical RAM for          h,s,v(r/c):       0.03 MB

     Dynamical RAM for          <psi|beta>:       0.00 MB

     Dynamical RAM for                 psi:       0.12 MB

     Dynamical RAM for                hpsi:       0.12 MB

     Dynamical RAM for      wfcinit/wfcrot:       0.12 MB

     Estimated static dynamical RAM per process >     215.09 MB

     Estimated max dynamical RAM per process >     216.02 MB

     Estimated total dynamical RAM >     864.09 MB
     EXX: ACE will be initialized later

     Initial potential from superposition of free atoms

     starting charge       9.8869, renormalised to      10.0000
     Starting wfcs are random

     total cpu time spent up to now is        0.2 secs

     Self-consistent Calculation

     iteration #  1     ecut=    80.00 Ry     beta= 0.70
     Davidson diagonalization with overlap

---- Real-time Memory Report at c_bands before calling an iterative solver
            65 MiB given to the printing process from OS
             0 MiB allocation reported by mallinfo(arena+hblkhd)
         13626 MiB available memory on the node where the printing process lives
------------------
     ethr =  1.00E-02,  avg # of iterations =  7.1

     Threshold (ethr) on eigenvalues was too large:
     Diagonalizing with lowered threshold

     Davidson diagonalization with overlap

---- Real-time Memory Report at c_bands before calling an iterative solver
            66 MiB given to the printing process from OS
             0 MiB allocation reported by mallinfo(arena+hblkhd)
         13624 MiB available memory on the node where the printing process lives
------------------
     ethr =  6.20E-04,  avg # of iterations =  1.8

     total cpu time spent up to now is        0.3 secs

     total energy              =     -62.26454589 Ry
     estimated scf accuracy    <       0.06473912 Ry

     iteration #  2     ecut=    80.00 Ry     beta= 0.70
     Davidson diagonalization with overlap

---- Real-time Memory Report at c_bands before calling an iterative solver
            67 MiB given to the printing process from OS
             0 MiB allocation reported by mallinfo(arena+hblkhd)
         13621 MiB available memory on the node where the printing process lives
------------------
     ethr =  6.47E-04,  avg # of iterations =  2.0

     total cpu time spent up to now is        0.4 secs

     total energy              =     -62.27996629 Ry
     estimated scf accuracy    <       0.03126266 Ry

     iteration #  3     ecut=    80.00 Ry     beta= 0.70
     Davidson diagonalization with overlap

---- Real-time Memory Report at c_bands before calling an iterative solver
            67 MiB given to the printing process from OS
             0 MiB allocation reported by mallinfo(arena+hblkhd)
         13621 MiB available memory on the node where the printing process lives
------------------
     ethr =  3.13E-04,  avg # of iterations =  1.6

     total cpu time spent up to now is        0.4 secs

     total energy              =     -62.28674044 Ry
     estimated scf accuracy    <       0.00048480 Ry

     iteration #  4     ecut=    80.00 Ry     beta= 0.70
     Davidson diagonalization with overlap

---- Real-time Memory Report at c_bands before calling an iterative solver
            67 MiB given to the printing process from OS
             0 MiB allocation reported by mallinfo(arena+hblkhd)
         13621 MiB available memory on the node where the printing process lives
------------------
     ethr =  4.85E-06,  avg # of iterations =  2.3

     total cpu time spent up to now is        0.5 secs

     total energy              =     -62.28684496 Ry
     estimated scf accuracy    <       0.00000546 Ry

     iteration #  5     ecut=    80.00 Ry     beta= 0.70
     Davidson diagonalization with overlap

---- Real-time Memory Report at c_bands before calling an iterative solver
            68 MiB given to the printing process from OS
             0 MiB allocation reported by mallinfo(arena+hblkhd)
         13621 MiB available memory on the node where the printing process lives
------------------
     ethr =  5.46E-08,  avg # of iterations =  2.0

     total cpu time spent up to now is        0.5 secs

     total energy              =     -62.28684631 Ry
     estimated scf accuracy    <       0.00000025 Ry

     iteration #  6     ecut=    80.00 Ry     beta= 0.70
     Davidson diagonalization with overlap

---- Real-time Memory Report at c_bands before calling an iterative solver
            68 MiB given to the printing process from OS
             0 MiB allocation reported by mallinfo(arena+hblkhd)
         13620 MiB available memory on the node where the printing process lives
------------------
     ethr =  2.54E-09,  avg # of iterations =  2.0

     total cpu time spent up to now is        0.6 secs

     End of self-consistent calculation

          k = 0.0000 0.0000 0.0000 (  1363 PWs)   bands (ev):

   -39.8834 -18.9249   0.9571   0.9571   0.9571  10.1085  24.9991  24.9991
    24.9991  25.4372  25.4372  25.4372

     occupation numbers 
     1.0000   1.0000   1.0000   1.0000   1.0000   0.0000   0.0000   0.0000
     0.0000   0.0000   0.0000   0.0000

          k =-0.1667 0.1667-0.1667 (  1330 PWs)   bands (ev):

   -39.8687 -18.8223   0.2383   0.8978   0.8978  10.8214  20.5940  22.7624
    22.7624  27.0812  27.3397  27.3397

     occupation numbers 
     1.0000   1.0000   1.0000   1.0000   1.0000   0.0000   0.0000   0.0000
     0.0000   0.0000   0.0000   0.0000

          k =-0.3333 0.3333-0.3333 (  1326 PWs)   bands (ev):

   -39.8392 -18.6058  -0.9953   0.7845   0.7845  11.7156  18.0945  20.7155
    20.7155  29.3679  30.1129  30.1129

     occupation numbers 
     1.0000   1.0000   1.0000   1.0000   1.0000   0.0000   0.0000   0.0000
     0.0000   0.0000   0.0000   0.0000

          k = 0.5000-0.5000 0.5000 (  1350 PWs)   bands (ev):

   -39.8245 -18.4912  -1.5491   0.7303   0.7303  11.8183  17.7365  19.9604
    19.9604  31.5775  32.0896  32.0896

     occupation numbers 
     1.0000   1.0000   1.0000   1.0000   1.0000   0.0000   0.0000   0.0000
     0.0000   0.0000   0.0000   0.0000

          k = 0.0000 0.3333 0.0000 (  1327 PWs)   bands (ev):

   -39.8641 -18.7815   0.2662   0.7017   0.7017  11.2087  21.5757  22.2701
    22.3130  22.3130  30.5826  30.5827

     occupation numbers 
     1.0000   1.0000   1.0000   1.0000   1.0000   0.0000   0.0000   0.0000
     0.0000   0.0000   0.0000   0.0000

          k =-0.1667 0.5000-0.1667 (  1330 PWs)   bands (ev):

   -39.8401 -18.5873  -0.7239   0.4813   0.5191  12.4092  18.3156  20.6791
    21.2184  24.4320  32.5762  32.7310

     occupation numbers 
     1.0000   1.0000   1.0000   1.0000   1.0000   0.0000   0.0000   0.0000
     0.0000   0.0000   0.0000   0.0000

          k = 0.6667-0.3333 0.6667 (  1336 PWs)   bands (ev):

   -39.8207 -18.4262  -1.4046   0.1494   0.5279  12.9179  17.1419  20.0479
    20.3115  27.5664  32.8857  33.2952

     occupation numbers 
     1.0000   1.0000   1.0000   1.0000   1.0000   0.0000   0.0000   0.0000
     0.0000   0.0000   0.0000   0.0000

          k = 0.5000-0.1667 0.5000 (  1338 PWs)   bands (ev):

   -39.8253 -18.4721  -1.1755   0.0220   0.7178  12.7452  17.0862  20.3739
    20.3932  30.0096  30.5164  30.8272

     occupation numbers 
     1.0000   1.0000   1.0000   1.0000   1.0000   0.0000   0.0000   0.0000
     0.0000   0.0000   0.0000   0.0000

          k = 0.3333 0.0000 0.3333 (  1341 PWs)   bands (ev):

   -39.8493 -18.6737  -0.3538   0.3623   0.9049  11.7839  18.5546  21.2088
    21.6065  27.4856  27.8749  31.0254

     occupation numbers 
     1.0000   1.0000   1.0000   1.0000   1.0000   0.0000   0.0000   0.0000
     0.0000   0.0000   0.0000   0.0000

          k = 0.0000 0.6667 0.0000 (  1331 PWs)   bands (ev):

   -39.8270 -18.4338  -1.2302   0.2056   0.2056  13.8439  18.5600  19.7212
    21.3580  21.3580  35.2672  36.4795

     occupation numbers 
     1.0000   1.0000   1.0000   1.0000   1.0000   0.0000   0.0000   0.0000
     0.0000   0.0000   0.0000   0.0000

          k = 0.8333-0.1667 0.8333 (  1325 PWs)   bands (ev):

   -39.8131 -18.2926  -1.6407  -0.2254   0.1458  15.0122  16.8860  19.2446
    20.9566  23.1453  34.7727  36.8065

     occupation numbers 
     1.0000   1.0000   1.0000   1.0000   1.0000   0.0000   0.0000   0.0000
     0.0000   0.0000   0.0000   0.0000

          k = 0.6667-0.0000 0.6667 (  1316 PWs)   bands (ev):

   -39.8123 -18.3125  -1.1766  -0.8198   0.3931  14.6459  16.0598  19.9222
    20.4782  26.4140  33.2738  33.6098

     occupation numbers 
     1.0000   1.0000   1.0000   1.0000   1.0000   0.0000   0.0000   0.0000
     0.0000   0.0000   0.0000   0.0000

          k = 0.0000-1.0000 0.0000 (  1338 PWs)   bands (ev):

   -39.8093 -18.2237  -2.0330  -0.0351  -0.0351  15.8071  17.5435  18.5099
    21.2549  21.2549  34.4444  39.4797

     occupation numbers 
     1.0000   1.0000   1.0000   1.0000   1.0000   0.0000   0.0000   0.0000
     0.0000   0.0000   0.0000   0.0000

          k = 0.6667-0.3333 1.0000 (  1329 PWs)   bands (ev):

   -39.8215 -18.4069  -1.1402  -0.2845   0.4418  13.8154  16.9421  19.9089
    20.6608  25.5725  31.8592  35.7146

     occupation numbers 
     1.0000   1.0000   1.0000   1.0000   1.0000   0.0000   0.0000   0.0000
     0.0000   0.0000   0.0000   0.0000

          k = 0.5000-0.1667 0.8333 (  1324 PWs)   bands (ev):

   -39.8123 -18.3126  -1.2450  -0.6985   0.3337  14.5687  16.3871  19.5968
    20.2722  28.3151  29.1235  36.4629

     occupation numbers 
     1.0000   1.0000   1.0000   1.0000   1.0000   0.0000   0.0000   0.0000
     0.0000   0.0000   0.0000   0.0000

          k =-0.3333-1.0000 0.0000 (  1324 PWs)   bands (ev):

   -39.8085 -18.2441  -1.5855  -0.5926   0.1143  15.8841  16.4618  18.4962
    20.5246  25.0135  32.7058  35.0091

     occupation numbers 
     1.0000   1.0000   1.0000   1.0000   1.0000   0.0000   0.0000   0.0000
     0.0000   0.0000   0.0000   0.0000

     highest occupied, lowest unoccupied level (ev):     0.9571   10.1085

!    total energy              =     -62.28684639 Ry
     estimated scf accuracy    <          2.1E-09 Ry

     convergence has been achieved in   6 iterations

     Using ACE for calculation of exact exchange

     EXX grid:    10777 G-vectors     FFT dimensions: (  32,  32,  32)
     ACE projected onto    12 (nbndproj) and applied to    12 (nbnd) bands

     EXX: now go back to refine exchange calculation

     total cpu time spent up to now is       65.5 secs

     Self-consistent Calculation

     iteration #  1     ecut=    80.00 Ry     beta= 0.70
     Davidson diagonalization with overlap

---- Real-time Memory Report at c_bands before calling an iterative solver
           473 MiB given to the printing process from OS
             0 MiB allocation reported by mallinfo(arena+hblkhd)
         12010 MiB available memory on the node where the printing process lives
------------------
     ethr =  2.54E-09,  avg # of iterations =  5.9

     total cpu time spent up to now is       65.6 secs

     total energy              =     -62.32586396 Ry
     estimated scf accuracy    <       0.00233905 Ry

     iteration #  2     ecut=    80.00 Ry     beta= 0.70
     Davidson diagonalization with overlap

---- Real-time Memory Report at c_bands before calling an iterative solver
           473 MiB given to the printing process from OS
             0 MiB allocation reported by mallinfo(arena+hblkhd)
         12009 MiB available memory on the node where the printing process lives
------------------
     ethr =  2.34E-05,  avg # of iterations =  1.9

     total cpu time spent up to now is       65.6 secs

     total energy              =     -62.32629851 Ry
     estimated scf accuracy    <       0.00044043 Ry

     iteration #  3     ecut=    80.00 Ry     beta= 0.70
     Davidson diagonalization with overlap

---- Real-time Memory Report at c_bands before calling an iterative solver
           473 MiB given to the printing process from OS
             0 MiB allocation reported by mallinfo(arena+hblkhd)
         12009 MiB available memory on the node where the printing process lives
------------------
     ethr =  4.40E-06,  avg # of iterations =  2.0

     total cpu time spent up to now is       65.7 secs

     total energy              =     -62.32641238 Ry
     estimated scf accuracy    <       0.00002247 Ry

     iteration #  4     ecut=    80.00 Ry     beta= 0.70
     Davidson diagonalization with overlap

---- Real-time Memory Report at c_bands before calling an iterative solver
           473 MiB given to the printing process from OS
             0 MiB allocation reported by mallinfo(arena+hblkhd)
         12009 MiB available memory on the node where the printing process lives
------------------
     ethr =  2.25E-07,  avg # of iterations =  1.1

     total cpu time spent up to now is       65.8 secs

     total energy              =     -62.32641556 Ry
     estimated scf accuracy    <       0.00000004 Ry

     iteration #  5     ecut=    80.00 Ry     beta= 0.70
     Davidson diagonalization with overlap

---- Real-time Memory Report at c_bands before calling an iterative solver
           473 MiB given to the printing process from OS
             0 MiB allocation reported by mallinfo(arena+hblkhd)
         12008 MiB available memory on the node where the printing process lives
------------------
     ethr =  4.16E-10,  avg # of iterations =  2.0

     total cpu time spent up to now is       65.8 secs

     End of self-consistent calculation

          k = 0.0000 0.0000 0.0000 (  1363 PWs)   bands (ev):

   -48.9714 -28.4942  -3.7436  -3.7436  -3.7436  11.6921  27.6112  27.6112
    27.6112  27.8706  27.8706  27.8706

     occupation numbers 
     1.0000   1.0000   1.0000   1.0000   1.0000   0.0000   0.0000   0.0000
     0.0000   0.0000   0.0000   0.0000

          k =-0.1667 0.1667-0.1667 (  1330 PWs)   bands (ev):

   -48.9543 -28.3961  -4.5486  -3.8156  -3.8156  12.5018  22.8276  25.2889
    25.2889  29.5911  29.7062  29.7062

     occupation numbers 
     1.0000   1.0000   1.0000   1.0000   1.0000   0.0000   0.0000   0.0000
     0.0000   0.0000   0.0000   0.0000

          k =-0.3333 0.3333-0.3333 (  1326 PWs)   bands (ev):

   -48.9209 -28.1867  -5.9422  -3.9497  -3.9497  13.4690  20.4977  23.0935
    23.0935  31.9009  32.7134  32.7134

     occupation numbers 
     1.0000   1.0000   1.0000   1.0000   1.0000   0.0000   0.0000   0.0000
     0.0000   0.0000   0.0000   0.0000

          k = 0.5000-0.5000 0.5000 (  1350 PWs)   bands (ev):

   -48.9038 -28.0787  -6.5726  -4.0151  -4.0151  13.5283  20.3628  22.2811
    22.2811  34.0682  35.0833  35.0833

     occupation numbers 
     1.0000   1.0000   1.0000   1.0000   1.0000   0.0000   0.0000   0.0000
     0.0000   0.0000   0.0000   0.0000

          k = 0.0000 0.3333 0.0000 (  1327 PWs)   bands (ev):

   -48.9489 -28.3567  -4.5048  -4.0383  -4.0383  12.9465  23.4543  24.7638
    24.9094  24.9094  33.1994  33.1994

     occupation numbers 
     1.0000   1.0000   1.0000   1.0000   1.0000   0.0000   0.0000   0.0000
     0.0000   0.0000   0.0000   0.0000

          k =-0.1667 0.5000-0.1667 (  1330 PWs)   bands (ev):

   -48.9215 -28.1690  -5.6201  -4.2824  -4.2476  14.3023  20.4543  23.0671
    23.7933  26.8931  35.2962  35.3400

     occupation numbers 
     1.0000   1.0000   1.0000   1.0000   1.0000   0.0000   0.0000   0.0000
     0.0000   0.0000   0.0000   0.0000

          k = 0.6667-0.3333 0.6667 (  1336 PWs)   bands (ev):

   -48.8993 -28.0158  -6.3973  -4.6448  -4.2424  14.7725  19.5565  22.4893
    22.7723  30.0736  35.5642  36.2393

     occupation numbers 
     1.0000   1.0000   1.0000   1.0000   1.0000   0.0000   0.0000   0.0000
     0.0000   0.0000   0.0000   0.0000

          k = 0.5000-0.1667 0.5000 (  1338 PWs)   bands (ev):

   -48.9047 -28.0593  -6.1418  -4.7891  -4.0280  14.6088  19.4116  22.7830
    22.9313  32.6462  32.9928  33.4669

     occupation numbers 
     1.0000   1.0000   1.0000   1.0000   1.0000   0.0000   0.0000   0.0000
     0.0000   0.0000   0.0000   0.0000

          k = 0.3333 0.0000 0.3333 (  1341 PWs)   bands (ev):

   -48.9321 -28.2530  -5.2122  -4.4177  -3.8138  13.5944  20.7067  23.7683
    24.0680  29.7466  30.4529  33.6748

     occupation numbers 
     1.0000   1.0000   1.0000   1.0000   1.0000   0.0000   0.0000   0.0000
     0.0000   0.0000   0.0000   0.0000

          k = 0.0000 0.6667 0.0000 (  1331 PWs)   bands (ev):

   -48.9068 -28.0193  -6.1556  -4.6003  -4.6003  15.9924  20.2857  22.0486
    24.1285  24.1285  38.7979  39.3323

     occupation numbers 
     1.0000   1.0000   1.0000   1.0000   1.0000   0.0000   0.0000   0.0000
     0.0000   0.0000   0.0000   0.0000

          k = 0.8333-0.1667 0.8333 (  1325 PWs)   bands (ev):

   -48.8906 -27.8860  -6.6144  -5.0794  -4.6696  17.2511  18.9632  21.5688
    23.6958  25.7189  37.9813  39.7384

     occupation numbers 
     1.0000   1.0000   1.0000   1.0000   1.0000   0.0000   0.0000   0.0000
     0.0000   0.0000   0.0000   0.0000

          k = 0.6667-0.0000 0.6667 (  1316 PWs)   bands (ev):

   -48.8900 -27.9046  -6.1023  -5.7405  -4.3919  16.6660  18.3928  22.4683
    23.0527  28.8032  35.9708  36.0900

     occupation numbers 
     1.0000   1.0000   1.0000   1.0000   1.0000   0.0000   0.0000   0.0000
     0.0000   0.0000   0.0000   0.0000

          k = 0.0000-1.0000 0.0000 (  1338 PWs)   bands (ev):

   -48.8862 -27.8201  -7.0408  -4.8734  -4.8734  18.3124  19.2158  20.7445
    24.1307  24.1307  37.6975  42.6024

     occupation numbers 
     1.0000   1.0000   1.0000   1.0000   1.0000   0.0000   0.0000   0.0000
     0.0000   0.0000   0.0000   0.0000

          k = 0.6667-0.3333 1.0000 (  1329 PWs)   bands (ev):

   -48.9003 -27.9962  -6.0785  -5.1327  -4.3405  15.8877  19.0723  22.2994
    23.3203  28.0619  34.5730  38.3644

     occupation numbers 
     1.0000   1.0000   1.0000   1.0000   1.0000   0.0000   0.0000   0.0000
     0.0000   0.0000   0.0000   0.0000

          k = 0.5000-0.1667 0.8333 (  1324 PWs)   bands (ev):

   -48.8898 -27.9059  -6.2014  -5.5760  -4.4674  16.6250  18.7110  22.0758
    22.8188  30.7692  31.6918  39.8467

     occupation numbers 
     1.0000   1.0000   1.0000   1.0000   1.0000   0.0000   0.0000   0.0000
     0.0000   0.0000   0.0000   0.0000

          k =-0.3333-1.0000 0.0000 (  1324 PWs)   bands (ev):

   -48.8853 -27.8403  -6.5506  -5.4745  -4.7175  18.2864  18.5664  20.8015
    23.1647  27.5891  35.3128  38.2606

     occupation numbers 
     1.0000   1.0000   1.0000   1.0000   1.0000   0.0000   0.0000   0.0000
     0.0000   0.0000   0.0000   0.0000

     highest occupied, lowest unoccupied level (ev):    -3.7436   11.6921

!    total energy              =     -62.32641558 Ry
     estimated scf accuracy    <          2.8E-09 Ry

     convergence has been achieved in   5 iterations

     Using ACE for calculation of exact exchange
     ACE projected onto    12 (nbndproj) and applied to    12 (nbnd) bands

     total energy              =     -62.32829210 Ry
     Harris-Foulkes estimate   =     -62.32829210 Ry
     est. exchange err (dexx)  =       0.00187652 Ry
     - averaged Fock potential =      15.49984005 Ry
     + Fock energy (ACE)       =      -7.77859835 Ry

     EXX: now go back to refine exchange calculation

     total cpu time spent up to now is      129.9 secs

     Self-consistent Calculation

     iteration #  1     ecut=    80.00 Ry     beta= 0.70
     Davidson diagonalization with overlap

---- Real-time Memory Report at c_bands before calling an iterative solver
           474 MiB given to the printing process from OS
             0 MiB allocation reported by mallinfo(arena+hblkhd)
         12009 MiB available memory on the node where the printing process lives
------------------
     ethr =  4.16E-10,  avg # of iterations =  4.9

     total cpu time spent up to now is      130.0 secs

     total energy              =     -62.32859669 Ry
     estimated scf accuracy    <       0.00010489 Ry

     iteration #  2     ecut=    80.00 Ry     beta= 0.70
     Davidson diagonalization with overlap

---- Real-time Memory Report at c_bands before calling an iterative solver
           474 MiB given to the printing process from OS
             0 MiB allocation reported by mallinfo(arena+hblkhd)
         12009 MiB available memory on the node where the printing process lives
------------------
     ethr =  1.05E-06,  avg # of iterations =  2.0

     total cpu time spent up to now is      130.0 secs

     total energy              =     -62.32861998 Ry
     estimated scf accuracy    <       0.00002186 Ry

     iteration #  3     ecut=    80.00 Ry     beta= 0.70
     Davidson diagonalization with overlap

---- Real-time Memory Report at c_bands before calling an iterative solver
           474 MiB given to the printing process from OS
             0 MiB allocation reported by mallinfo(arena+hblkhd)
         12008 MiB available memory on the node where the printing process lives
------------------
     ethr =  2.19E-07,  avg # of iterations =  2.0

     total cpu time spent up to now is      130.1 secs

     total energy              =     -62.32862558 Ry
     estimated scf accuracy    <       0.00000071 Ry

     iteration #  4     ecut=    80.00 Ry     beta= 0.70
     Davidson diagonalization with overlap

---- Real-time Memory Report at c_bands before calling an iterative solver
           474 MiB given to the printing process from OS
             0 MiB allocation reported by mallinfo(arena+hblkhd)
         12008 MiB available memory on the node where the printing process lives
------------------
     ethr =  7.13E-09,  avg # of iterations =  1.6

     total cpu time spent up to now is      130.1 secs

     End of self-consistent calculation

          k = 0.0000 0.0000 0.0000 (  1363 PWs)   bands (ev):

   -49.0216 -28.5487  -3.7721  -3.7721  -3.7721  11.8006  27.6613  27.6613
    27.6613  27.9175  27.9175  27.9175

     occupation numbers 
     1.0000   1.0000   1.0000   1.0000   1.0000   0.0000   0.0000   0.0000
     0.0000   0.0000   0.0000   0.0000

          k =-0.1667 0.1667-0.1667 (  1330 PWs)   bands (ev):

   -49.0053 -28.4514  -4.5577  -3.8434  -3.8434  12.5973  22.8910  25.3401
    25.3401  29.6389  29.7509  29.7509

     occupation numbers 
     1.0000   1.0000   1.0000   1.0000   1.0000   0.0000   0.0000   0.0000
     0.0000   0.0000   0.0000   0.0000

          k =-0.3333 0.3333-0.3333 (  1326 PWs)   bands (ev):

   -48.9729 -28.2455  -5.9300  -3.9779  -3.9779  13.5630  20.5603  23.1509
    23.1509  31.9459  32.7550  32.7550

     occupation numbers 
     1.0000   1.0000   1.0000   1.0000   1.0000   0.0000   0.0000   0.0000
     0.0000   0.0000   0.0000   0.0000

          k = 0.5000-0.5000 0.5000 (  1350 PWs)   bands (ev):

   -48.9565 -28.1388  -6.5517  -4.0432  -4.0432  13.6293  20.4203  22.3412
    22.3412  34.1121  35.1312  35.1312

     occupation numbers 
     1.0000   1.0000   1.0000   1.0000   1.0000   0.0000   0.0000   0.0000
     0.0000   0.0000   0.0000   0.0000

          k = 0.0000 0.3333 0.0000 (  1327 PWs)   bands (ev):

   -49.0001 -28.4124  -4.5146  -4.0606  -4.0606  13.0340  23.5211  24.8151
    24.9632  24.9632  33.2381  33.2382

     occupation numbers 
     1.0000   1.0000   1.0000   1.0000   1.0000   0.0000   0.0000   0.0000
     0.0000   0.0000   0.0000   0.0000

          k =-0.1667 0.5000-0.1667 (  1330 PWs)   bands (ev):

   -48.9736 -28.2279  -5.6115  -4.3000  -4.2679  14.3791  20.5243  23.1233
    23.8478  26.9449  35.3331  35.3755

     occupation numbers 
     1.0000   1.0000   1.0000   1.0000   1.0000   0.0000   0.0000   0.0000
     0.0000   0.0000   0.0000   0.0000

          k = 0.6667-0.3333 0.6667 (  1336 PWs)   bands (ev):

   -48.9522 -28.0770  -6.3781  -4.6564  -4.2647  14.8575  19.6196  22.5458
    22.8305  30.1197  35.6001  36.2817

     occupation numbers 
     1.0000   1.0000   1.0000   1.0000   1.0000   0.0000   0.0000   0.0000
     0.0000   0.0000   0.0000   0.0000

          k = 0.5000-0.1667 0.5000 (  1338 PWs)   bands (ev):

   -48.9573 -28.1199  -6.1268  -4.7972  -4.0554  14.6930  19.4770  22.8415
    22.9865  32.6888  33.0328  33.5092

     occupation numbers 
     1.0000   1.0000   1.0000   1.0000   1.0000   0.0000   0.0000   0.0000
     0.0000   0.0000   0.0000   0.0000

          k = 0.3333 0.0000 0.3333 (  1341 PWs)   bands (ev):

   -48.9838 -28.3102  -5.2104  -4.4317  -3.8432  13.6780  20.7762  23.8216
    24.1224  29.7918  30.4995  33.7147

     occupation numbers 
     1.0000   1.0000   1.0000   1.0000   1.0000   0.0000   0.0000   0.0000
     0.0000   0.0000   0.0000   0.0000

          k = 0.0000 0.6667 0.0000 (  1331 PWs)   bands (ev):

   -48.9591 -28.0814  -6.1363  -4.6140  -4.6140  16.0536  20.3653  22.1068
    24.1830  24.1830  38.8284  39.3533

     occupation numbers 
     1.0000   1.0000   1.0000   1.0000   1.0000   0.0000   0.0000   0.0000
     0.0000   0.0000   0.0000   0.0000

          k = 0.8333-0.1667 0.8333 (  1325 PWs)   bands (ev):

   -48.9436 -27.9502  -6.5882  -5.0832  -4.6830  17.3145  19.0366  21.6269
    23.7514  25.7720  37.9997  39.7649

     occupation numbers 
     1.0000   1.0000   1.0000   1.0000   1.0000   0.0000   0.0000   0.0000
     0.0000   0.0000   0.0000   0.0000

          k = 0.6667-0.0000 0.6667 (  1316 PWs)   bands (ev):

   -48.9429 -27.9688  -6.0858  -5.7329  -4.4122  16.7420  18.4564  22.5226
    23.1097  28.8492  36.0088  36.1256

     occupation numbers 
     1.0000   1.0000   1.0000   1.0000   1.0000   0.0000   0.0000   0.0000
     0.0000   0.0000   0.0000   0.0000

          k = 0.0000-1.0000 0.0000 (  1338 PWs)   bands (ev):

   -48.9393 -27.8856  -7.0069  -4.8826  -4.8826  18.3679  19.3001  20.8030
    24.1854  24.1854  37.7160  42.6128

     occupation numbers 
     1.0000   1.0000   1.0000   1.0000   1.0000   0.0000   0.0000   0.0000
     0.0000   0.0000   0.0000   0.0000

          k = 0.6667-0.3333 1.0000 (  1329 PWs)   bands (ev):

   -48.9530 -28.0580  -6.0624  -5.1345  -4.3593  15.9560  19.1444  22.3574
    23.3745  28.1118  34.6094  38.3978

     occupation numbers 
     1.0000   1.0000   1.0000   1.0000   1.0000   0.0000   0.0000   0.0000
     0.0000   0.0000   0.0000   0.0000

          k = 0.5000-0.1667 0.8333 (  1324 PWs)   bands (ev):

   -48.9428 -27.9696  -6.1847  -5.5691  -4.4849  16.6981  18.7762  22.1347
    22.8722  30.8120  31.7360  39.8701

     occupation numbers 
     1.0000   1.0000   1.0000   1.0000   1.0000   0.0000   0.0000   0.0000
     0.0000   0.0000   0.0000   0.0000

          k =-0.3333-1.0000 0.0000 (  1324 PWs)   bands (ev):

   -48.9385 -27.9053  -6.5258  -5.4699  -4.7303  18.3466  18.6399  20.8612
    23.2177  27.6401  35.3506  38.2787

     occupation numbers 
     1.0000   1.0000   1.0000   1.0000   1.0000   0.0000   0.0000   0.0000
     0.0000   0.0000   0.0000   0.0000

     highest occupied, lowest unoccupied level (ev):    -3.7721   11.8006

!    total energy              =     -62.32862567 Ry
     estimated scf accuracy    <          2.8E-09 Ry

     convergence has been achieved in   4 iterations

     Using ACE for calculation of exact exchange
     ACE projected onto    12 (nbndproj) and applied to    12 (nbnd) bands

     total energy              =     -62.32868723 Ry
     Harris-Foulkes estimate   =     -62.32868724 Ry
     est. exchange err (dexx)  =       0.00006156 Ry
     - averaged Fock potential =      15.56835025 Ry
     + Fock energy (ACE)       =      -7.78981347 Ry

     EXX: now go back to refine exchange calculation

     total cpu time spent up to now is      194.7 secs

     Self-consistent Calculation

     iteration #  1     ecut=    80.00 Ry     beta= 0.70
     Davidson diagonalization with overlap

---- Real-time Memory Report at c_bands before calling an iterative solver
           474 MiB given to the printing process from OS
             0 MiB allocation reported by mallinfo(arena+hblkhd)
         12009 MiB available memory on the node where the printing process lives
------------------
     ethr =  7.13E-09,  avg # of iterations =  3.0

     total cpu time spent up to now is      194.8 secs

     total energy              =     -62.32869734 Ry
     estimated scf accuracy    <       0.00000488 Ry

     iteration #  2     ecut=    80.00 Ry     beta= 0.70
     Davidson diagonalization with overlap

---- Real-time Memory Report at c_bands before calling an iterative solver
           474 MiB given to the printing process from OS
             0 MiB allocation reported by mallinfo(arena+hblkhd)
         12009 MiB available memory on the node where the printing process lives
------------------
     ethr =  4.88E-08,  avg # of iterations =  2.0

     total cpu time spent up to now is      194.8 secs

     total energy              =     -62.32869855 Ry
     estimated scf accuracy    <       0.00000111 Ry

     iteration #  3     ecut=    80.00 Ry     beta= 0.70
     Davidson diagonalization with overlap

---- Real-time Memory Report at c_bands before calling an iterative solver
           474 MiB given to the printing process from OS
             0 MiB allocation reported by mallinfo(arena+hblkhd)
         12009 MiB available memory on the node where the printing process lives
------------------
     ethr =  1.11E-08,  avg # of iterations =  2.0

     total cpu time spent up to now is      194.9 secs

     total energy              =     -62.32869883 Ry
     estimated scf accuracy    <       0.00000002 Ry

     iteration #  4     ecut=    80.00 Ry     beta= 0.70
     Davidson diagonalization with overlap

---- Real-time Memory Report at c_bands before calling an iterative solver
           474 MiB given to the printing process from OS
             0 MiB allocation reported by mallinfo(arena+hblkhd)
         12008 MiB available memory on the node where the printing process lives
------------------
     ethr =  2.49E-10,  avg # of iterations =  1.6

     total cpu time spent up to now is      194.9 secs

     End of self-consistent calculation

          k = 0.0000 0.0000 0.0000 (  1363 PWs)   bands (ev):

   -49.0316 -28.5529  -3.7773  -3.7773  -3.7773  11.8236  27.6719  27.6719
    27.6719  27.9263  27.9263  27.9263

     occupation numbers 
     1.0000   1.0000   1.0000   1.0000   1.0000   0.0000   0.0000   0.0000
     0.0000   0.0000   0.0000   0.0000

          k =-0.1667 0.1667-0.1667 (  1330 PWs)   bands (ev):

   -49.0153 -28.4558  -4.5589  -3.8484  -3.8484  12.6173  22.9040  25.3501
    25.3501  29.6489  29.7601  29.7601

     occupation numbers 
     1.0000   1.0000   1.0000   1.0000   1.0000   0.0000   0.0000   0.0000
     0.0000   0.0000   0.0000   0.0000

          k =-0.3333 0.3333-0.3333 (  1326 PWs)   bands (ev):

   -48.9832 -28.2506  -5.9266  -3.9829  -3.9829  13.5822  20.5728  23.1619
    23.1619  31.9552  32.7641  32.7641

     occupation numbers 
     1.0000   1.0000   1.0000   1.0000   1.0000   0.0000   0.0000   0.0000
     0.0000   0.0000   0.0000   0.0000

          k = 0.5000-0.5000 0.5000 (  1350 PWs)   bands (ev):

   -48.9669 -28.1441  -6.5466  -4.0481  -4.0481  13.6500  20.4313  22.3527
    22.3527  34.1210  35.1416  35.1416

     occupation numbers 
     1.0000   1.0000   1.0000   1.0000   1.0000   0.0000   0.0000   0.0000
     0.0000   0.0000   0.0000   0.0000

          k = 0.0000 0.3333 0.0000 (  1327 PWs)   bands (ev):

   -49.0102 -28.4169  -4.5158  -4.0646  -4.0646  13.0523  23.5353  24.8250
    24.9737  24.9737  33.2460  33.2460

     occupation numbers 
     1.0000   1.0000   1.0000   1.0000   1.0000   0.0000   0.0000   0.0000
     0.0000   0.0000   0.0000   0.0000

          k =-0.1667 0.5000-0.1667 (  1330 PWs)   bands (ev):

   -48.9839 -28.2330  -5.6088  -4.3031  -4.2714  14.3949  20.5386  23.1341
    23.8584  26.9555  35.3410  35.3834

     occupation numbers 
     1.0000   1.0000   1.0000   1.0000   1.0000   0.0000   0.0000   0.0000
     0.0000   0.0000   0.0000   0.0000

          k = 0.6667-0.3333 0.6667 (  1336 PWs)   bands (ev):

   -48.9626 -28.0826  -6.3734  -4.6580  -4.2685  14.8748  19.6318  22.5567
    22.8415  30.1295  35.6083  36.2911

     occupation numbers 
     1.0000   1.0000   1.0000   1.0000   1.0000   0.0000   0.0000   0.0000
     0.0000   0.0000   0.0000   0.0000

          k = 0.5000-0.1667 0.5000 (  1338 PWs)   bands (ev):

   -48.9677 -28.1253  -6.1228  -4.7982  -4.0601  14.7101  19.4899  22.8525
    22.9971  32.6978  33.0416  33.5183

     occupation numbers 
     1.0000   1.0000   1.0000   1.0000   1.0000   0.0000   0.0000   0.0000
     0.0000   0.0000   0.0000   0.0000

          k = 0.3333 0.0000 0.3333 (  1341 PWs)   bands (ev):

   -48.9940 -28.3150  -5.2091  -4.4342  -3.8485  13.6953  20.7902  23.8321
    24.1326  29.8015  30.5090  33.7232

     occupation numbers 
     1.0000   1.0000   1.0000   1.0000   1.0000   0.0000   0.0000   0.0000
     0.0000   0.0000   0.0000   0.0000

          k = 0.0000 0.6667 0.0000 (  1331 PWs)   bands (ev):

   -48.9695 -28.0871  -6.1313  -4.6164  -4.6164  16.0659  20.3821  22.1181
    24.1934  24.1934  38.8353  39.3579

     occupation numbers 
     1.0000   1.0000   1.0000   1.0000   1.0000   0.0000   0.0000   0.0000
     0.0000   0.0000   0.0000   0.0000

          k = 0.8333-0.1667 0.8333 (  1325 PWs)   bands (ev):

   -48.9541 -27.9563  -6.5820  -5.0834  -4.6852  17.3270  19.0513  21.6385
    23.7618  25.7826  38.0049  39.7712

     occupation numbers 
     1.0000   1.0000   1.0000   1.0000   1.0000   0.0000   0.0000   0.0000
     0.0000   0.0000   0.0000   0.0000

          k = 0.6667-0.0000 0.6667 (  1316 PWs)   bands (ev):

   -48.9534 -27.9749  -6.0818  -5.7306  -4.4156  16.7573  18.4687  22.5332
    23.1204  28.8591  36.0167  36.1334

     occupation numbers 
     1.0000   1.0000   1.0000   1.0000   1.0000   0.0000   0.0000   0.0000
     0.0000   0.0000   0.0000   0.0000

          k = 0.0000-1.0000 0.0000 (  1338 PWs)   bands (ev):

   -48.9497 -27.8919  -6.9992  -4.8840  -4.8840  18.3781  19.3179  20.8151
    24.1956  24.1956  37.7210  42.6152

     occupation numbers 
     1.0000   1.0000   1.0000   1.0000   1.0000   0.0000   0.0000   0.0000
     0.0000   0.0000   0.0000   0.0000

          k = 0.6667-0.3333 1.0000 (  1329 PWs)   bands (ev):

   -48.9634 -28.0637  -6.0582  -5.1343  -4.3626  15.9698  19.1589  22.3686
    23.3849  28.1220  34.6178  38.4051

     occupation numbers 
     1.0000   1.0000   1.0000   1.0000   1.0000   0.0000   0.0000   0.0000
     0.0000   0.0000   0.0000   0.0000

          k = 0.5000-0.1667 0.8333 (  1324 PWs)   bands (ev):

   -48.9533 -27.9756  -6.1805  -5.5669  -4.4878  16.7127  18.7889  22.1460
    22.8827  30.8212  31.7452  39.8754

     occupation numbers 
     1.0000   1.0000   1.0000   1.0000   1.0000   0.0000   0.0000   0.0000
     0.0000   0.0000   0.0000   0.0000

          k =-0.3333-1.0000 0.0000 (  1324 PWs)   bands (ev):

   -48.9490 -27.9115  -6.5199  -5.4685  -4.7323  18.3580  18.6545  20.8733
    23.2280  27.6503  35.3586  38.2834

     occupation numbers 
     1.0000   1.0000   1.0000   1.0000   1.0000   0.0000   0.0000   0.0000
     0.0000   0.0000   0.0000   0.0000

     highest occupied, lowest unoccupied level (ev):    -3.7773   11.8236

!    total energy              =     -62.32869883 Ry
     estimated scf accuracy    <          1.4E-10 Ry

     convergence has been achieved in   4 iterations

     Using ACE for calculation of exact exchange
     ACE projected onto    12 (nbndproj) and applied to    12 (nbnd) bands

     total energy              =     -62.32870108 Ry
     Harris-Foulkes estimate   =     -62.32870108 Ry
     est. exchange err (dexx)  =       0.00000225 Ry
     - averaged Fock potential =      15.58193376 Ry
     + Fock energy (ACE)       =      -7.79212254 Ry

     EXX: now go back to refine exchange calculation

     total cpu time spent up to now is      259.2 secs

     Self-consistent Calculation

     iteration #  1     ecut=    80.00 Ry     beta= 0.70
     Davidson diagonalization with overlap

---- Real-time Memory Report at c_bands before calling an iterative solver
           474 MiB given to the printing process from OS
             0 MiB allocation reported by mallinfo(arena+hblkhd)
         12009 MiB available memory on the node where the printing process lives
------------------
     ethr =  2.49E-10,  avg # of iterations =  3.0

     total cpu time spent up to now is      259.3 secs

     total energy              =     -62.32870145 Ry
     estimated scf accuracy    <       0.00000023 Ry

     iteration #  2     ecut=    80.00 Ry     beta= 0.70
     Davidson diagonalization with overlap

---- Real-time Memory Report at c_bands before calling an iterative solver
           474 MiB given to the printing process from OS
             0 MiB allocation reported by mallinfo(arena+hblkhd)
         12008 MiB available memory on the node where the printing process lives
------------------
     ethr =  2.33E-09,  avg # of iterations =  2.0

     total cpu time spent up to now is      259.3 secs

     total energy              =     -62.32870151 Ry
     estimated scf accuracy    <       0.00000006 Ry

     iteration #  3     ecut=    80.00 Ry     beta= 0.70
     Davidson diagonalization with overlap

---- Real-time Memory Report at c_bands before calling an iterative solver
           474 MiB given to the printing process from OS
             0 MiB allocation reported by mallinfo(arena+hblkhd)
         12008 MiB available memory on the node where the printing process lives
------------------
     ethr =  5.64E-10,  avg # of iterations =  2.0

     total cpu time spent up to now is      259.4 secs

     End of self-consistent calculation

          k = 0.0000 0.0000 0.0000 (  1363 PWs)   bands (ev):

   -49.0336 -28.5531  -3.7787  -3.7787  -3.7787  11.8284  27.6740  27.6740
    27.6740  27.9279  27.9279  27.9279

     occupation numbers 
     1.0000   1.0000   1.0000   1.0000   1.0000   0.0000   0.0000   0.0000
     0.0000   0.0000   0.0000   0.0000

          k =-0.1667 0.1667-0.1667 (  1330 PWs)   bands (ev):

   -49.0174 -28.4560  -4.5594  -3.8497  -3.8497  12.6215  22.9065  25.3520
    25.3520  29.6508  29.7620  29.7620

     occupation numbers 
     1.0000   1.0000   1.0000   1.0000   1.0000   0.0000   0.0000   0.0000
     0.0000   0.0000   0.0000   0.0000

          k =-0.3333 0.3333-0.3333 (  1326 PWs)   bands (ev):

   -48.9852 -28.2509  -5.9261  -3.9841  -3.9841  13.5862  20.5752  23.1640
    23.1640  31.9570  32.7658  32.7658

     occupation numbers 
     1.0000   1.0000   1.0000   1.0000   1.0000   0.0000   0.0000   0.0000
     0.0000   0.0000   0.0000   0.0000

          k = 0.5000-0.5000 0.5000 (  1350 PWs)   bands (ev):

   -48.9689 -28.1445  -6.5457  -4.0493  -4.0493  13.6542  20.4333  22.3549
    22.3549  34.1227  35.1436  35.1436

     occupation numbers 
     1.0000   1.0000   1.0000   1.0000   1.0000   0.0000   0.0000   0.0000
     0.0000   0.0000   0.0000   0.0000

          k = 0.0000 0.3333 0.0000 (  1327 PWs)   bands (ev):

   -49.0122 -28.4171  -4.5163  -4.0657  -4.0657  13.0561  23.5381  24.8268
    24.9758  24.9758  33.2476  33.2476

     occupation numbers 
     1.0000   1.0000   1.0000   1.0000   1.0000   0.0000   0.0000   0.0000
     0.0000   0.0000   0.0000   0.0000

          k =-0.1667 0.5000-0.1667 (  1330 PWs)   bands (ev):

   -48.9859 -28.2333  -5.6084  -4.3039  -4.2724  14.3981  20.5414  23.1361
    23.8605  26.9575  35.3425  35.3850

     occupation numbers 
     1.0000   1.0000   1.0000   1.0000   1.0000   0.0000   0.0000   0.0000
     0.0000   0.0000   0.0000   0.0000

          k = 0.6667-0.3333 0.6667 (  1336 PWs)   bands (ev):

   -48.9647 -28.0830  -6.3726  -4.6585  -4.2695  14.8783  19.6341  22.5588
    22.8436  30.1314  35.6099  36.2929

     occupation numbers 
     1.0000   1.0000   1.0000   1.0000   1.0000   0.0000   0.0000   0.0000
     0.0000   0.0000   0.0000   0.0000

          k = 0.5000-0.1667 0.5000 (  1338 PWs)   bands (ev):

   -48.9698 -28.1257  -6.1222  -4.7987  -4.0613  14.7136  19.4923  22.8546
    22.9991  32.6996  33.0433  33.5201

     occupation numbers 
     1.0000   1.0000   1.0000   1.0000   1.0000   0.0000   0.0000   0.0000
     0.0000   0.0000   0.0000   0.0000

          k = 0.3333 0.0000 0.3333 (  1341 PWs)   bands (ev):

   -48.9961 -28.3153  -5.2091  -4.4349  -3.8498  13.6988  20.7930  23.8341
    24.1346  29.8034  30.5108  33.7249

     occupation numbers 
     1.0000   1.0000   1.0000   1.0000   1.0000   0.0000   0.0000   0.0000
     0.0000   0.0000   0.0000   0.0000

          k = 0.0000 0.6667 0.0000 (  1331 PWs)   bands (ev):

   -48.9715 -28.0875  -6.1305  -4.6171  -4.6171  16.0683  20.3855  22.1202
    24.1954  24.1954  38.8367  39.3588

     occupation numbers 
     1.0000   1.0000   1.0000   1.0000   1.0000   0.0000   0.0000   0.0000
     0.0000   0.0000   0.0000   0.0000

          k = 0.8333-0.1667 0.8333 (  1325 PWs)   bands (ev):

   -48.9562 -27.9567  -6.5809  -5.0837  -4.6859  17.3294  19.0542  21.6407
    23.7637  25.7846  38.0061  39.7725

     occupation numbers 
     1.0000   1.0000   1.0000   1.0000   1.0000   0.0000   0.0000   0.0000
     0.0000   0.0000   0.0000   0.0000

          k = 0.6667-0.0000 0.6667 (  1316 PWs)   bands (ev):

   -48.9555 -27.9754  -6.0811  -5.7303  -4.4165  16.7603  18.4710  22.5352
    23.1224  28.8611  36.0182  36.1349

     occupation numbers 
     1.0000   1.0000   1.0000   1.0000   1.0000   0.0000   0.0000   0.0000
     0.0000   0.0000   0.0000   0.0000

          k = 0.0000-1.0000 0.0000 (  1338 PWs)   bands (ev):

   -48.9518 -27.8925  -6.9978  -4.8846  -4.8846  18.3799  19.3214  20.8175
    24.1975  24.1975  37.7221  42.6157

     occupation numbers 
     1.0000   1.0000   1.0000   1.0000   1.0000   0.0000   0.0000   0.0000
     0.0000   0.0000   0.0000   0.0000

          k = 0.6667-0.3333 1.0000 (  1329 PWs)   bands (ev):

   -48.9655 -28.0641  -6.0575  -5.1345  -4.3635  15.9725  19.1617  22.3707
    23.3869  28.1240  34.6194  38.4065

     occupation numbers 
     1.0000   1.0000   1.0000   1.0000   1.0000   0.0000   0.0000   0.0000
     0.0000   0.0000   0.0000   0.0000

          k = 0.5000-0.1667 0.8333 (  1324 PWs)   bands (ev):

   -48.9554 -27.9760  -6.1799  -5.5667  -4.4886  16.7156  18.7912  22.1482
    22.8846  30.8231  31.7469  39.8765

     occupation numbers 
     1.0000   1.0000   1.0000   1.0000   1.0000   0.0000   0.0000   0.0000
     0.0000   0.0000   0.0000   0.0000

          k =-0.3333-1.0000 0.0000 (  1324 PWs)   bands (ev):

   -48.9510 -27.9120  -6.5189  -5.4685  -4.7330  18.3601  18.6574  20.8757
    23.2299  27.6522  35.3602  38.2845

     occupation numbers 
     1.0000   1.0000   1.0000   1.0000   1.0000   0.0000   0.0000   0.0000
     0.0000   0.0000   0.0000   0.0000

     highest occupied, lowest unoccupied level (ev):    -3.7787   11.8284

!    total energy              =     -62.32870152 Ry
     estimated scf accuracy    <          9.1E-10 Ry

     convergence has been achieved in   3 iterations

     Using ACE for calculation of exact exchange
     ACE projected onto    12 (nbndproj) and applied to    12 (nbnd) bands

     total energy              =     -62.32870161 Ry
     Harris-Foulkes estimate   =     -62.32870162 Ry
     est. exchange err (dexx)  =       0.00000009 Ry
     - averaged Fock potential =      15.58473943 Ry
     + Fock energy (ACE)       =      -7.79261697 Ry

     EXX: now go back to refine exchange calculation

     total cpu time spent up to now is      323.9 secs

     Self-consistent Calculation

     iteration #  1     ecut=    80.00 Ry     beta= 0.70
     Davidson diagonalization with overlap

---- Real-time Memory Report at c_bands before calling an iterative solver
           474 MiB given to the printing process from OS
             0 MiB allocation reported by mallinfo(arena+hblkhd)
         12007 MiB available memory on the node where the printing process lives
------------------
     ethr =  5.64E-10,  avg # of iterations =  2.0

     total cpu time spent up to now is      324.0 secs

     End of self-consistent calculation

          k = 0.0000 0.0000 0.0000 (  1363 PWs)   bands (ev):

   -49.0340 -28.5534  -3.7794  -3.7794  -3.7794  11.8293  27.6744  27.6744
    27.6744  27.9282  27.9282  27.9282

     occupation numbers 
     1.0000   1.0000   1.0000   1.0000   1.0000   0.0000   0.0000   0.0000
     0.0000   0.0000   0.0000   0.0000

          k =-0.1667 0.1667-0.1667 (  1330 PWs)   bands (ev):

   -49.0177 -28.4563  -4.5599  -3.8504  -3.8504  12.6223  22.9070  25.3524
    25.3524  29.6512  29.7623  29.7623

     occupation numbers 
     1.0000   1.0000   1.0000   1.0000   1.0000   0.0000   0.0000   0.0000
     0.0000   0.0000   0.0000   0.0000

          k =-0.3333 0.3333-0.3333 (  1326 PWs)   bands (ev):

   -48.9856 -28.2513  -5.9264  -3.9848  -3.9848  13.5869  20.5755  23.1645
    23.1645  31.9573  32.7662  32.7662

     occupation numbers 
     1.0000   1.0000   1.0000   1.0000   1.0000   0.0000   0.0000   0.0000
     0.0000   0.0000   0.0000   0.0000

          k = 0.5000-0.5000 0.5000 (  1350 PWs)   bands (ev):

   -48.9693 -28.1449  -6.5459  -4.0500  -4.0500  13.6551  20.4336  22.3553
    22.3553  34.1231  35.1439  35.1439

     occupation numbers 
     1.0000   1.0000   1.0000   1.0000   1.0000   0.0000   0.0000   0.0000
     0.0000   0.0000   0.0000   0.0000

          k = 0.0000 0.3333 0.0000 (  1327 PWs)   bands (ev):

   -49.0126 -28.4175  -4.5168  -4.0664  -4.0664  13.0568  23.5387  24.8272
    24.9761  24.9761  33.2479  33.2479

     occupation numbers 
     1.0000   1.0000   1.0000   1.0000   1.0000   0.0000   0.0000   0.0000
     0.0000   0.0000   0.0000   0.0000

          k =-0.1667 0.5000-0.1667 (  1330 PWs)   bands (ev):

   -48.9863 -28.2337  -5.6088  -4.3046  -4.2730  14.3987  20.5419  23.1366
    23.8608  26.9579  35.3428  35.3853

     occupation numbers 
     1.0000   1.0000   1.0000   1.0000   1.0000   0.0000   0.0000   0.0000
     0.0000   0.0000   0.0000   0.0000

          k = 0.6667-0.3333 0.6667 (  1336 PWs)   bands (ev):

   -48.9650 -28.0834  -6.3728  -4.6591  -4.2702  14.8790  19.6344  22.5592
    22.8440  30.1318  35.6103  36.2932

     occupation numbers 
     1.0000   1.0000   1.0000   1.0000   1.0000   0.0000   0.0000   0.0000
     0.0000   0.0000   0.0000   0.0000

          k = 0.5000-0.1667 0.5000 (  1338 PWs)   bands (ev):

   -48.9702 -28.1261  -6.1225  -4.7992  -4.0620  14.7142  19.4927  22.8550
    22.9995  32.7000  33.0437  33.5205

     occupation numbers 
     1.0000   1.0000   1.0000   1.0000   1.0000   0.0000   0.0000   0.0000
     0.0000   0.0000   0.0000   0.0000

          k = 0.3333 0.0000 0.3333 (  1341 PWs)   bands (ev):

   -48.9965 -28.3157  -5.2094  -4.4355  -3.8505  13.6995  20.7935  23.8344
    24.1350  29.8038  30.5112  33.7252

     occupation numbers 
     1.0000   1.0000   1.0000   1.0000   1.0000   0.0000   0.0000   0.0000
     0.0000   0.0000   0.0000   0.0000

          k = 0.0000 0.6667 0.0000 (  1331 PWs)   bands (ev):

   -48.9719 -28.0880  -6.1307  -4.6177  -4.6177  16.0687  20.3862  22.1207
    24.1957  24.1957  38.8369  39.3590

     occupation numbers 
     1.0000   1.0000   1.0000   1.0000   1.0000   0.0000   0.0000   0.0000
     0.0000   0.0000   0.0000   0.0000

          k = 0.8333-0.1667 0.8333 (  1325 PWs)   bands (ev):

   -48.9565 -27.9572  -6.5811  -5.0842  -4.6865  17.3298  19.0547  21.6411
    23.7641  25.7850  38.0063  39.7727

     occupation numbers 
     1.0000   1.0000   1.0000   1.0000   1.0000   0.0000   0.0000   0.0000
     0.0000   0.0000   0.0000   0.0000

          k = 0.6667-0.0000 0.6667 (  1316 PWs)   bands (ev):

   -48.9559 -27.9758  -6.0814  -5.7306  -4.4171  16.7609  18.4713  22.5356
    23.1227  28.8615  36.0185  36.1352

     occupation numbers 
     1.0000   1.0000   1.0000   1.0000   1.0000   0.0000   0.0000   0.0000
     0.0000   0.0000   0.0000   0.0000

          k = 0.0000-1.0000 0.0000 (  1338 PWs)   bands (ev):

   -48.9522 -27.8929  -6.9979  -4.8851  -4.8851  18.3801  19.3222  20.8179
    24.1978  24.1978  37.7223  42.6157

     occupation numbers 
     1.0000   1.0000   1.0000   1.0000   1.0000   0.0000   0.0000   0.0000
     0.0000   0.0000   0.0000   0.0000

          k = 0.6667-0.3333 1.0000 (  1329 PWs)   bands (ev):

   -48.9659 -28.0645  -6.0578  -5.1350  -4.3641  15.9730  19.1622  22.3711
    23.3872  28.1244  34.6198  38.4068

     occupation numbers 
     1.0000   1.0000   1.0000   1.0000   1.0000   0.0000   0.0000   0.0000
     0.0000   0.0000   0.0000   0.0000

          k = 0.5000-0.1667 0.8333 (  1324 PWs)   bands (ev):

   -48.9557 -27.9765  -6.1801  -5.5671  -4.4893  16.7161  18.7916  22.1486
    22.8850  30.8235  31.7473  39.8766

     occupation numbers 
     1.0000   1.0000   1.0000   1.0000   1.0000   0.0000   0.0000   0.0000
     0.0000   0.0000   0.0000   0.0000

          k =-0.3333-1.0000 0.0000 (  1324 PWs)   bands (ev):

   -48.9514 -27.9125  -6.5191  -5.4689  -4.7335  18.3604  18.6579  20.8762
    23.2302  27.6526  35.3605  38.2847

     occupation numbers 
     1.0000   1.0000   1.0000   1.0000   1.0000   0.0000   0.0000   0.0000
     0.0000   0.0000   0.0000   0.0000

     highest occupied, lowest unoccupied level (ev):    -3.7794   11.8293

!    total energy              =     -62.32870163 Ry
     estimated scf accuracy    <          9.2E-09 Ry

     convergence has been achieved in   1 iterations

     Using ACE for calculation of exact exchange
     ACE projected onto    12 (nbndproj) and applied to    12 (nbnd) bands

!!   total energy              =     -62.32870163 Ry
     Harris-Foulkes estimate   =     -62.32870164 Ry
     est. exchange err (dexx)  =          5.8E-09 Ry
     - averaged Fock potential =      15.58539238 Ry
     + Fock energy (ACE)       =      -7.79277541 Ry

     EXX self-consistency reached

     Writing all to output data dir ./out_fg/liffg.save/ :
     XML data file, charge density, pseudopotentials, collected wavefunctions

     init_run     :      0.15s CPU      0.15s WALL (       1 calls)
     electrons    :      1.29s CPU      1.43s WALL (       6 calls)

     Called by init_run:
     aceinit0     :      0.00s CPU      0.00s WALL (       1 calls)
     wfcinit      :      0.03s CPU      0.03s WALL (       1 calls)
     wfcinit:wfcr :      0.02s CPU      0.03s WALL (      16 calls)
     potinit      :      0.01s CPU      0.01s WALL (       1 calls)
     hinit0       :      0.11s CPU      0.11s WALL (       1 calls)

     Called by electrons:
     c_bands      :      1.04s CPU      1.14s WALL (      24 calls)
     sum_band     :      0.15s CPU      0.19s WALL (      24 calls)
     v_of_rho     :      0.09s CPU      0.10s WALL (      25 calls)
     v_h          :      0.00s CPU      0.00s WALL (      25 calls)
     v_xc         :      0.09s CPU      0.10s WALL (      25 calls)
     mix_rho      :      0.00s CPU      0.00s WALL (      24 calls)

     Called by c_bands:
     init_us_2    :      0.03s CPU      0.03s WALL (     784 calls)
     cegterg      :      1.00s CPU      1.09s WALL (     384 calls)

     Called by sum_band:
     sum_band:wei :      0.00s CPU      0.00s WALL (      24 calls)
     sum_band:loo :      0.15s CPU      0.18s WALL (      24 calls)
     sum_band:buf :      0.00s CPU      0.00s WALL (     384 calls)
     sum_band:ini :      0.01s CPU      0.01s WALL (     384 calls)

     Called by *egterg:
     cdiaghg      :      0.10s CPU      0.11s WALL (    1245 calls)
     cegterg:over :      0.04s CPU      0.04s WALL (     957 calls)
     cegterg:upda :      0.01s CPU      0.01s WALL (     957 calls)
     cegterg:last :      0.02s CPU      0.02s WALL (     848 calls)
     h_psi        :      0.80s CPU      0.88s WALL (    1357 calls)
     g_psi        :      0.01s CPU      0.01s WALL (     957 calls)

     Called by h_psi:
     h_psi:calbec :      0.03s CPU      0.03s WALL (    1357 calls)
     vloc_psi     :      0.73s CPU      0.80s WALL (    1357 calls)
                                        0.00s GPU  (    1357 calls)
     add_vuspsi   :      0.01s CPU      0.01s WALL (    1357 calls)

     General routines
     calbec       :      0.06s CPU      0.07s WALL (    2734 calls)
     fft          :      0.10s CPU      0.10s WALL (     243 calls)
     ffts         :      0.00s CPU      0.00s WALL (      24 calls)
     fftw         :      0.75s CPU      0.84s WALL (   28860 calls)
     fftc         :    241.21s CPU    279.76s WALL ( 5971968 calls)
     fftcw        :      0.11s CPU      0.14s WALL (    3456 calls)

     Parallel routines

     EXX routines
     exx_grid     :      0.00s CPU      0.01s WALL (       1 calls)
     exxinit      :      1.66s CPU      2.20s WALL (       6 calls)
     vexx         :    332.03s CPU    384.90s WALL (      96 calls)
     matcalc      :      0.03s CPU      0.03s WALL (    1377 calls)
     aceupdate    :      0.00s CPU      0.00s WALL (      96 calls)
     vexxace      :      0.03s CPU      0.04s WALL (    1105 calls)
     aceinit      :    332.04s CPU    384.91s WALL (      96 calls)

     PWSCF        :   5m35.17s CPU   6m28.76s WALL


   This run was terminated on:   9:57:19  25Jun2026            

=------------------------------------------------------------------------------=
   JOB DONE.
=------------------------------------------------------------------------------=
