
     Program PWSCF v.7.5 starts on 25Jun2026 at 10:56:22 

     This program is part of the open-source Quantum ESPRESSO suite
     for quantum simulation of materials; please cite
         "P. Giannozzi et al., J. Phys.:Condens. Matter 21 395502 (2009);
         "P. Giannozzi et al., J. Phys.:Condens. Matter 29 465901 (2017);
         "P. Giannozzi et al., J. Chem. Phys. 152 154105 (2020);
          URL http://www.quantum-espresso.org", 
     in publications or presentations arising from this work. More details at
     http://www.quantum-espresso.org/quote

     Parallel version (MPI & OpenMP), running on       4 processor cores
     Number of MPI processes:                 4
     Threads/MPI process:                     1

     MPI processes distributed on     1 nodes
     13581 MiB available memory on the printing compute node when the environment starts

     Reading input from caf2.fg.in

     Current dimensions of program PWSCF are:
     Max number of different atomic species (ntypx) = 10
     Max number of k-points (npk) =  40000
     Max angular momentum in pseudopotentials (lmaxx) =  4

     IMPORTANT: XC functional enforced from input :
     Exchange-correlation= HSE
                           (   1   4  12   4   0   0   0)
     EXX-fraction              =        0.25
     Any further DFT definition will be discarded
     Please, verify this is what you really want

     EXX Screening parameter changed:    0.7135000
     EXX fraction changed:   1.00
     DD-RSH-CAM (LMODELHF) semilocal: AEXX, BEXX =   0.4435  0.7953
     DD-RSH-CAM (LMODELHF) enabled
     AEXX =  0.4435   BEXX =  0.7953   mu(bohr^-1) =  0.7135

     R & G space division:  proc/nbgrp/npool/nimage =       4
     Subspace diagonalization in iterative solution of the eigenvalue problem:
     a serial algorithm will be used

     EXX: q-point mesh:     6    6    6
     EXX: setup a grid of 216 q-points centered on each k-point
     (k+q)-points:
   0.0000000   0.0000000   0.0000000         1    1
  -0.1666667   0.1666667  -0.1666667         2    1
  -0.3333333   0.3333333  -0.3333333         3    1
   0.5000000  -0.5000000   0.5000000         4    1
   0.3333333  -0.3333333   0.3333333         3   -1
   0.1666667  -0.1666667   0.1666667         2   -1
   0.1666667   0.1666667   0.1666667         2    3
   0.0000000   0.3333333   0.0000000         5    1
  -0.1666667   0.5000000  -0.1666667         6    1
   0.6666667  -0.3333333   0.6666667         7    1
   0.5000000  -0.1666667   0.5000000         8    1
   0.3333333   0.0000000   0.3333333         9    1
   0.3333333   0.3333333   0.3333333         3    3
   0.1666667   0.5000000   0.1666667         6    3
   0.0000000   0.6666667   0.0000000        10    1
   0.8333333  -0.1666667   0.8333333        11    1
   0.6666667   0.0000000   0.6666667        12    1
   0.5000000   0.1666667   0.5000000         8   -3
  -0.5000000  -0.5000000  -0.5000000         4    3
  -0.6666667  -0.3333333  -0.6666667         7    3
  -0.8333333  -0.1666667  -0.8333333        11    3
   0.0000000  -1.0000000   0.0000000        13    1
   0.8333333   0.1666667   0.8333333        11   -3
   0.6666667   0.3333333   0.6666667         7   -3
  -0.3333333  -0.3333333  -0.3333333         3   -3
  -0.5000000  -0.1666667  -0.5000000         8    3
  -0.6666667   0.0000000  -0.6666667        12   -1
  -0.8333333   0.1666667  -0.8333333        11   -1
   0.0000000  -0.6666667   0.0000000        10   -1
  -0.1666667  -0.5000000  -0.1666667         6   -3
  -0.1666667  -0.1666667  -0.1666667         2   -3
  -0.3333333   0.0000000  -0.3333333         9   -1
  -0.5000000   0.1666667  -0.5000000         8   -1
  -0.6666667   0.3333333  -0.6666667         7   -1
   0.1666667  -0.5000000   0.1666667         6   -1
   0.0000000  -0.3333333   0.0000000         5   -1
  -0.1666667  -0.1666667   0.1666667         2    4
  -0.3333333   0.0000000   0.0000000         5   -5
  -0.5000000   0.1666667  -0.1666667         6   -5
   0.3333333  -0.6666667   0.6666667         7   -5
   0.1666667  -0.5000000   0.5000000         8   -5
   0.0000000  -0.3333333   0.3333333         9   -5
   0.0000000   0.0000000   0.3333333         5   13
  -0.1666667   0.1666667   0.1666667         2   -2
  -0.3333333   0.3333333   0.0000000         9   13
  -0.5000000   0.5000000  -0.1666667         8   13
  -0.6666667   0.6666667  -0.3333333         7   13
   0.1666667  -0.1666667   0.5000000         6   13
   0.1666667   0.1666667   0.5000000         6  -16
   0.0000000   0.3333333   0.3333333         9   -6
  -0.1666667   0.5000000   0.1666667         6   -2
   0.6666667  -0.3333333   1.0000000        14    1
   0.5000000  -0.1666667   0.8333333        15    1
  -0.6666667   1.0000000  -0.3333333        14   13
  -0.6666667  -0.6666667  -0.3333333         7  -16
   0.1666667   0.5000000   0.5000000         8    7
  -1.0000000  -0.3333333  -0.6666667        14   -9
   0.8333333  -0.1666667  -0.8333333        11   -2
  -0.3333333  -1.0000000   0.0000000        16    1
   0.5000000   0.1666667   0.8333333        15   -3
  -0.5000000  -0.5000000  -0.1666667         8  -16
   0.3333333   0.6666667   0.6666667         7    7
  -0.8333333  -0.1666667  -0.5000000        15   -9
   0.0000000  -1.0000000   0.3333333        16   -9
   0.8333333   0.1666667  -0.8333333        11    4
   0.6666667   0.3333333   1.0000000        14   -3
  -0.3333333  -0.3333333   0.0000000         9   14
  -0.5000000  -0.1666667  -0.1666667         6    7
   0.3333333  -1.0000000   0.6666667        14   22
  -0.8333333   0.1666667  -0.5000000        15   10
  -1.0000000   0.3333333  -0.6666667        14   10
  -0.1666667  -0.5000000   0.1666667         6    4
  -0.3333333  -0.3333333   0.3333333         3    4
  -0.5000000  -0.1666667   0.1666667         6   -8
  -0.6666667   0.0000000   0.0000000        10   -5
   0.1666667  -0.8333333   0.8333333        11   -5
   0.0000000  -0.6666667   0.6666667        12   -5
  -0.1666667  -0.5000000   0.5000000         8    8
  -0.1666667  -0.1666667   0.5000000         6  -14
  -0.3333333   0.0000000   0.3333333         9    2
  -0.5000000   0.1666667   0.1666667         6    6
   0.3333333  -0.6666667   1.0000000        14   -5
   0.1666667  -0.5000000   0.8333333        15   -5
   1.0000000   0.6666667  -0.3333333        14   17
   0.0000000   0.0000000   0.6666667        10   13
  -0.1666667   0.1666667   0.5000000         6   15
  -0.3333333   0.3333333   0.3333333         3   -2
  -0.5000000   0.5000000   0.1666667         8  -15
  -0.6666667   0.6666667   0.0000000        12   13
  -0.8333333   0.8333333  -0.1666667        11   13
  -0.8333333  -0.8333333  -0.1666667        11  -16
  -1.0000000  -0.6666667  -0.3333333        14   18
  -0.1666667   0.5000000   0.5000000         8   -6
   0.6666667  -0.3333333  -0.6666667         7   -2
   0.5000000  -0.1666667  -0.8333333        15   -2
   0.3333333   0.0000000  -1.0000000        16   13
  -0.6666667  -0.6666667   0.0000000        12   14
   0.1666667   0.5000000   0.8333333        15    7
   0.0000000   0.6666667   0.6666667        12   -6
   0.8333333  -0.1666667  -0.5000000        15   12
   0.6666667   0.0000000  -0.6666667        12   -2
   0.5000000   0.1666667  -0.8333333        15    4
  -0.5000000  -0.5000000   0.1666667         8   14
   0.3333333   0.6666667   1.0000000        14    7
   0.1666667   0.8333333   0.8333333        11    7
  -1.0000000   0.0000000  -0.3333333        16   21
   0.8333333   0.1666667  -0.5000000        15  -11
   0.6666667   0.3333333  -0.6666667         7    4
   0.5000000   0.5000000  -0.5000000         4    4
   0.3333333   0.6666667  -0.6666667         7   -8
   0.1666667   0.8333333  -0.8333333        11   -8
  -1.0000000   0.0000000   0.0000000        13    5
  -0.1666667  -0.8333333   0.8333333        11    8
  -0.3333333  -0.6666667   0.6666667         7    8
   0.6666667   0.6666667  -0.3333333         7  -14
  -0.5000000  -0.1666667   0.5000000         8   -4
   0.3333333  -1.0000000  -0.6666667        14  -21
   0.1666667  -0.8333333  -0.8333333        11    6
   1.0000000   0.3333333   0.0000000        16   -5
  -0.1666667  -0.5000000   0.8333333        15    8
   0.8333333   0.8333333  -0.1666667        11  -14
   0.6666667   1.0000000  -0.3333333        14  -14
  -0.5000000   0.1666667   0.5000000         8    2
   0.3333333  -0.6666667  -0.6666667         7    6
   0.1666667  -0.5000000  -0.8333333        15    6
   0.0000000  -0.3333333  -1.0000000        16   17
   0.0000000   0.0000000  -1.0000000        13   13
   0.8333333  -0.8333333  -0.1666667        11   15
   0.6666667  -0.6666667  -0.3333333         7   15
  -0.5000000   0.5000000   0.5000000         4    2
  -0.6666667   0.6666667   0.3333333         7  -15
  -0.8333333   0.8333333   0.1666667        11  -15
  -0.8333333  -0.8333333   0.1666667        11   14
   0.0000000   0.3333333   1.0000000        16  -17
  -0.1666667   0.5000000   0.8333333        15   -6
  -0.3333333   0.6666667   0.6666667         7   -6
   0.5000000  -0.1666667  -0.5000000         8   -2
  -0.6666667  -1.0000000   0.3333333        14   14
  -0.6666667  -0.6666667   0.3333333         7   14
   0.1666667   0.5000000  -0.8333333        15   -8
  -1.0000000  -0.3333333   0.0000000        16    5
  -0.1666667   0.8333333   0.8333333        11   -6
  -0.3333333   1.0000000   0.6666667        14   21
   0.5000000   0.1666667  -0.5000000         8    4
   0.3333333   0.3333333  -0.3333333         3   -4
   0.1666667   0.5000000  -0.5000000         8   -8
   0.0000000   0.6666667  -0.6666667        12    5
  -0.1666667   0.8333333  -0.8333333        11    5
   0.6666667   0.0000000   0.0000000        10    5
   0.5000000   0.1666667  -0.1666667         6    8
   0.5000000   0.5000000  -0.1666667         8  -14
  -0.6666667  -0.3333333   0.6666667         7   -4
  -0.8333333  -0.1666667   0.5000000        15   11
   1.0000000   0.0000000   0.3333333        16  -21
  -0.1666667  -0.8333333  -0.8333333        11   -7
  -0.3333333  -0.6666667  -1.0000000        14   -7
   0.6666667   0.6666667   0.0000000        12  -14
  -0.5000000  -0.1666667   0.8333333        15   -4
  -0.6666667   0.0000000   0.6666667        12    2
  -0.8333333   0.1666667   0.5000000        15  -12
   0.0000000  -0.6666667  -0.6666667        12    6
  -0.1666667  -0.5000000  -0.8333333        15   -7
   0.8333333   0.8333333   0.1666667        11   16
  -0.3333333   0.0000000   1.0000000        16  -13
  -0.5000000   0.1666667   0.8333333        15    2
  -0.6666667   0.3333333   0.6666667         7    2
   0.1666667  -0.5000000  -0.5000000         8    6
   1.0000000   0.6666667   0.3333333        14  -18
   0.0000000   0.0000000  -0.6666667        10  -13
   0.8333333  -0.8333333   0.1666667        11  -13
   0.6666667  -0.6666667   0.0000000        12  -13
   0.5000000  -0.5000000  -0.1666667         8   15
   0.3333333  -0.3333333  -0.3333333         3    2
   0.1666667  -0.1666667  -0.5000000         6  -15
   0.1666667   0.1666667  -0.5000000         6   14
  -1.0000000  -0.6666667   0.3333333        14  -17
  -0.1666667   0.5000000  -0.8333333        15    5
  -0.3333333   0.6666667  -1.0000000        14    5
   0.5000000  -0.1666667  -0.1666667         6   -6
   0.3333333   0.0000000  -0.3333333         9   -2
   0.1666667   0.1666667  -0.1666667         2   -4
   0.0000000   0.3333333  -0.3333333         9    5
  -0.1666667   0.5000000  -0.5000000         8    5
  -0.3333333   0.6666667  -0.6666667         7    5
   0.5000000  -0.1666667   0.1666667         6    5
   0.3333333   0.0000000   0.0000000         5    5
   0.3333333   0.3333333   0.0000000         9  -14
   0.1666667   0.5000000  -0.1666667         6   -4
   1.0000000  -0.3333333   0.6666667        14  -10
   0.8333333  -0.1666667   0.5000000        15  -10
  -0.3333333   1.0000000  -0.6666667        14  -22
   0.5000000   0.1666667   0.1666667         6   -7
   0.5000000   0.5000000   0.1666667         8   16
  -0.6666667  -0.3333333  -1.0000000        14    3
  -0.8333333  -0.1666667   0.8333333        11   -4
   0.0000000   1.0000000  -0.3333333        16    9
   0.8333333   0.1666667   0.5000000        15    9
  -0.3333333  -0.6666667  -0.6666667         7   -7
   0.6666667   0.6666667   0.3333333         7   16
  -0.5000000  -0.1666667  -0.8333333        15    3
   0.3333333   1.0000000   0.0000000        16   -1
  -0.8333333   0.1666667   0.8333333        11    2
   1.0000000   0.3333333   0.6666667        14    9
  -0.1666667  -0.5000000  -0.5000000         8   -7
  -0.1666667  -0.1666667  -0.5000000         6   16
   0.6666667  -1.0000000   0.3333333        14  -13
  -0.5000000   0.1666667  -0.8333333        15   -1
  -0.6666667   0.3333333  -1.0000000        14   -1
   0.1666667  -0.5000000  -0.1666667         6    2
   0.0000000  -0.3333333  -0.3333333         9    6
   0.0000000   0.0000000  -0.3333333         5  -13
  -0.1666667   0.1666667  -0.5000000         6  -13
   0.6666667  -0.6666667   0.3333333         7  -13
   0.5000000  -0.5000000   0.1666667         8  -13
   0.3333333  -0.3333333   0.0000000         9  -13
   0.1666667  -0.1666667  -0.1666667         2    2

     Parallelization info
     --------------------
     sticks:   dense  smooth     PW     G-vecs:    dense   smooth      PW
     Min         289     289     87                 6614     6614    1068
     Max         290     290     88                 6619     6619    1071
     Sum        1159    1159    349                26469    26469    4279

     Using Slab Decomposition



     bravais-lattice index     =            2
     lattice parameter (alat)  =      10.3230  a.u.
     unit-cell volume          =     275.0159 (a.u.)^3
     number of atoms/cell      =            3
     number of atomic types    =            2
     number of electrons       =        24.00
     number of Kohn-Sham states=           20
     kinetic-energy cutoff     =      80.0000  Ry
     charge density cutoff     =     320.0000  Ry
     cutoff for Fock operator  =     320.0000  Ry
     scf convergence threshold =      1.0E-08
     mixing beta               =       0.7000
     number of iterations used =            8  plain     mixing
     Exchange-correlation= HSE
                           (   1   4  12   4   0   0   0)
     EXX-fraction              =        1.00

     celldm(1)=  10.323000  celldm(2)=   0.000000  celldm(3)=   0.000000
     celldm(4)=   0.000000  celldm(5)=   0.000000  celldm(6)=   0.000000

     crystal axes: (cart. coord. in units of alat)
               a(1) = (  -0.500000   0.000000   0.500000 )  
               a(2) = (   0.000000   0.500000   0.500000 )  
               a(3) = (  -0.500000   0.500000   0.000000 )  

     reciprocal axes: (cart. coord. in units 2 pi/alat)
               b(1) = ( -1.000000 -1.000000  1.000000 )  
               b(2) = (  1.000000  1.000000  1.000000 )  
               b(3) = ( -1.000000  1.000000 -1.000000 )  


     PseudoPot. # 1 for Ca read from file:
     ../../../../pseudos/Ca_ONCV_PBE-1.2.upf
     MD5 check sum: b43c970dc090f2312d256360aabdb6f1
     Pseudo is Norm-conserving, Zval = 10.0
     Generated using ONCVPSP code by D. R. Hamann
     Using radial grid of  602 points,  6 beta functions with: 
                l(1) =   0
                l(2) =   0
                l(3) =   1
                l(4) =   1
                l(5) =   2
                l(6) =   2

     PseudoPot. # 2 for F  read from file:
     ../../../../pseudos/F_ONCV_PBE-1.2.upf
     MD5 check sum: 1d8275f47d602dd53cad6bcdc0eda7dc
     Pseudo is Norm-conserving, Zval =  7.0
     Generated using ONCVPSP code by D. R. Hamann
     Using radial grid of  602 points,  4 beta functions with: 
                l(1) =   0
                l(2) =   0
                l(3) =   1
                l(4) =   1

     atomic species   valence    mass     pseudopotential
     Ca               10.00    40.07800     Ca( 1.00)
     F                 7.00    18.99800     F ( 1.00)

     48 Sym. Ops., with inversion, found


                                    s                        frac. trans.

      isym =  1     identity                                     

 cryst.   s( 1) = (     1          0          0      )
                  (     0          1          0      )
                  (     0          0          1      )

 cart.    s( 1) = (  1.0000000  0.0000000  0.0000000 )
                  (  0.0000000  1.0000000  0.0000000 )
                  (  0.0000000  0.0000000  1.0000000 )


      isym =  2     180 deg rotation - cart. axis [0,0,1]        

 cryst.   s( 2) = (     0          1         -1      )
                  (     1          0         -1      )
                  (     0          0         -1      )

 cart.    s( 2) = ( -1.0000000  0.0000000  0.0000000 )
                  (  0.0000000 -1.0000000  0.0000000 )
                  (  0.0000000  0.0000000  1.0000000 )


      isym =  3     180 deg rotation - cart. axis [0,1,0]        

 cryst.   s( 3) = (    -1          0          0      )
                  (    -1          0          1      )
                  (    -1          1          0      )

 cart.    s( 3) = ( -1.0000000  0.0000000  0.0000000 )
                  (  0.0000000  1.0000000  0.0000000 )
                  (  0.0000000  0.0000000 -1.0000000 )


      isym =  4     180 deg rotation - cart. axis [1,0,0]        

 cryst.   s( 4) = (     0         -1          1      )
                  (     0         -1          0      )
                  (     1         -1          0      )

 cart.    s( 4) = (  1.0000000  0.0000000  0.0000000 )
                  (  0.0000000 -1.0000000  0.0000000 )
                  (  0.0000000  0.0000000 -1.0000000 )


      isym =  5     180 deg rotation - cart. axis [1,1,0]        

 cryst.   s( 5) = (     0         -1          0      )
                  (    -1          0          0      )
                  (     0          0         -1      )

 cart.    s( 5) = (  0.0000000  1.0000000  0.0000000 )
                  (  1.0000000  0.0000000  0.0000000 )
                  (  0.0000000  0.0000000 -1.0000000 )


      isym =  6     180 deg rotation - cart. axis [1,-1,0]       

 cryst.   s( 6) = (    -1          0          1      )
                  (     0         -1          1      )
                  (     0          0          1      )

 cart.    s( 6) = (  0.0000000 -1.0000000  0.0000000 )
                  ( -1.0000000  0.0000000  0.0000000 )
                  (  0.0000000  0.0000000 -1.0000000 )


      isym =  7      90 deg rotation - cart. axis [0,0,-1]       

 cryst.   s( 7) = (     0          1          0      )
                  (     0          1         -1      )
                  (    -1          1          0      )

 cart.    s( 7) = (  0.0000000  1.0000000  0.0000000 )
                  ( -1.0000000  0.0000000  0.0000000 )
                  (  0.0000000  0.0000000  1.0000000 )


      isym =  8      90 deg rotation - cart. axis [0,0,1]        

 cryst.   s( 8) = (     1          0         -1      )
                  (     1          0          0      )
                  (     1         -1          0      )

 cart.    s( 8) = (  0.0000000 -1.0000000  0.0000000 )
                  (  1.0000000  0.0000000  0.0000000 )
                  (  0.0000000  0.0000000  1.0000000 )


      isym =  9     180 deg rotation - cart. axis [1,0,1]        

 cryst.   s( 9) = (    -1          0          0      )
                  (     0          0         -1      )
                  (     0         -1          0      )

 cart.    s( 9) = (  0.0000000  0.0000000  1.0000000 )
                  (  0.0000000 -1.0000000  0.0000000 )
                  (  1.0000000  0.0000000  0.0000000 )


      isym = 10     180 deg rotation - cart. axis [-1,0,1]       

 cryst.   s(10) = (     1          0          0      )
                  (     1         -1          0      )
                  (     1          0         -1      )

 cart.    s(10) = (  0.0000000  0.0000000 -1.0000000 )
                  (  0.0000000 -1.0000000  0.0000000 )
                  ( -1.0000000  0.0000000  0.0000000 )


      isym = 11      90 deg rotation - cart. axis [0,1,0]        

 cryst.   s(11) = (     0          1         -1      )
                  (    -1          1          0      )
                  (     0          1          0      )

 cart.    s(11) = (  0.0000000  0.0000000  1.0000000 )
                  (  0.0000000  1.0000000  0.0000000 )
                  ( -1.0000000  0.0000000  0.0000000 )


      isym = 12      90 deg rotation - cart. axis [0,-1,0]       

 cryst.   s(12) = (     0         -1          1      )
                  (     0          0          1      )
                  (    -1          0          1      )

 cart.    s(12) = (  0.0000000  0.0000000 -1.0000000 )
                  (  0.0000000  1.0000000  0.0000000 )
                  (  1.0000000  0.0000000  0.0000000 )


      isym = 13     180 deg rotation - cart. axis [0,1,1]        

 cryst.   s(13) = (    -1          1          0      )
                  (     0          1          0      )
                  (     0          1         -1      )

 cart.    s(13) = ( -1.0000000  0.0000000  0.0000000 )
                  (  0.0000000  0.0000000  1.0000000 )
                  (  0.0000000  1.0000000  0.0000000 )


      isym = 14     180 deg rotation - cart. axis [0,1,-1]       

 cryst.   s(14) = (     0          0         -1      )
                  (     0         -1          0      )
                  (    -1          0          0      )

 cart.    s(14) = ( -1.0000000  0.0000000  0.0000000 )
                  (  0.0000000  0.0000000 -1.0000000 )
                  (  0.0000000 -1.0000000  0.0000000 )


      isym = 15      90 deg rotation - cart. axis [-1,0,0]       

 cryst.   s(15) = (     0          0          1      )
                  (    -1          0          1      )
                  (     0         -1          1      )

 cart.    s(15) = (  1.0000000  0.0000000  0.0000000 )
                  (  0.0000000  0.0000000  1.0000000 )
                  (  0.0000000 -1.0000000  0.0000000 )


      isym = 16      90 deg rotation - cart. axis [1,0,0]        

 cryst.   s(16) = (     1         -1          0      )
                  (     1          0         -1      )
                  (     1          0          0      )

 cart.    s(16) = (  1.0000000  0.0000000  0.0000000 )
                  (  0.0000000  0.0000000 -1.0000000 )
                  (  0.0000000  1.0000000  0.0000000 )


      isym = 17     120 deg rotation - cart. axis [-1,-1,-1]     

 cryst.   s(17) = (    -1          0          1      )
                  (    -1          1          0      )
                  (    -1          0          0      )

 cart.    s(17) = (  0.0000000  1.0000000  0.0000000 )
                  (  0.0000000  0.0000000  1.0000000 )
                  (  1.0000000  0.0000000  0.0000000 )


      isym = 18     120 deg rotation - cart. axis [-1,1,1]       

 cryst.   s(18) = (     0          1          0      )
                  (     0          0          1      )
                  (     1          0          0      )

 cart.    s(18) = (  0.0000000 -1.0000000  0.0000000 )
                  (  0.0000000  0.0000000  1.0000000 )
                  ( -1.0000000  0.0000000  0.0000000 )


      isym = 19     120 deg rotation - cart. axis [1,1,-1]       

 cryst.   s(19) = (     1          0         -1      )
                  (     0          0         -1      )
                  (     0          1         -1      )

 cart.    s(19) = (  0.0000000  1.0000000  0.0000000 )
                  (  0.0000000  0.0000000 -1.0000000 )
                  ( -1.0000000  0.0000000  0.0000000 )


      isym = 20     120 deg rotation - cart. axis [1,-1,1]       

 cryst.   s(20) = (     0         -1          0      )
                  (     1         -1          0      )
                  (     0         -1          1      )

 cart.    s(20) = (  0.0000000 -1.0000000  0.0000000 )
                  (  0.0000000  0.0000000 -1.0000000 )
                  (  1.0000000  0.0000000  0.0000000 )


      isym = 21     120 deg rotation - cart. axis [1,1,1]        

 cryst.   s(21) = (     0          0         -1      )
                  (     0          1         -1      )
                  (     1          0         -1      )

 cart.    s(21) = (  0.0000000  0.0000000  1.0000000 )
                  (  1.0000000  0.0000000  0.0000000 )
                  (  0.0000000  1.0000000  0.0000000 )


      isym = 22     120 deg rotation - cart. axis [-1,1,-1]      

 cryst.   s(22) = (    -1          1          0      )
                  (    -1          0          0      )
                  (    -1          0          1      )

 cart.    s(22) = (  0.0000000  0.0000000  1.0000000 )
                  ( -1.0000000  0.0000000  0.0000000 )
                  (  0.0000000 -1.0000000  0.0000000 )


      isym = 23     120 deg rotation - cart. axis [1,-1,-1]      

 cryst.   s(23) = (     0          0          1      )
                  (     1          0          0      )
                  (     0          1          0      )

 cart.    s(23) = (  0.0000000  0.0000000 -1.0000000 )
                  ( -1.0000000  0.0000000  0.0000000 )
                  (  0.0000000  1.0000000  0.0000000 )


      isym = 24     120 deg rotation - cart. axis [-1,-1,1]      

 cryst.   s(24) = (     1         -1          0      )
                  (     0         -1          1      )
                  (     0         -1          0      )

 cart.    s(24) = (  0.0000000  0.0000000 -1.0000000 )
                  (  1.0000000  0.0000000  0.0000000 )
                  (  0.0000000 -1.0000000  0.0000000 )


      isym = 25     inversion                                    

 cryst.   s(25) = (    -1          0          0      )
                  (     0         -1          0      )
                  (     0          0         -1      )

 cart.    s(25) = ( -1.0000000  0.0000000  0.0000000 )
                  (  0.0000000 -1.0000000  0.0000000 )
                  (  0.0000000  0.0000000 -1.0000000 )


      isym = 26     inv. 180 deg rotation - cart. axis [0,0,1]   

 cryst.   s(26) = (     0         -1          1      )
                  (    -1          0          1      )
                  (     0          0          1      )

 cart.    s(26) = (  1.0000000  0.0000000  0.0000000 )
                  (  0.0000000  1.0000000  0.0000000 )
                  (  0.0000000  0.0000000 -1.0000000 )


      isym = 27     inv. 180 deg rotation - cart. axis [0,1,0]   

 cryst.   s(27) = (     1          0          0      )
                  (     1          0         -1      )
                  (     1         -1          0      )

 cart.    s(27) = (  1.0000000  0.0000000  0.0000000 )
                  (  0.0000000 -1.0000000  0.0000000 )
                  (  0.0000000  0.0000000  1.0000000 )


      isym = 28     inv. 180 deg rotation - cart. axis [1,0,0]   

 cryst.   s(28) = (     0          1         -1      )
                  (     0          1          0      )
                  (    -1          1          0      )

 cart.    s(28) = ( -1.0000000  0.0000000  0.0000000 )
                  (  0.0000000  1.0000000  0.0000000 )
                  (  0.0000000  0.0000000  1.0000000 )


      isym = 29     inv. 180 deg rotation - cart. axis [1,1,0]   

 cryst.   s(29) = (     0          1          0      )
                  (     1          0          0      )
                  (     0          0          1      )

 cart.    s(29) = (  0.0000000 -1.0000000  0.0000000 )
                  ( -1.0000000  0.0000000  0.0000000 )
                  (  0.0000000  0.0000000  1.0000000 )


      isym = 30     inv. 180 deg rotation - cart. axis [1,-1,0]  

 cryst.   s(30) = (     1          0         -1      )
                  (     0          1         -1      )
                  (     0          0         -1      )

 cart.    s(30) = (  0.0000000  1.0000000  0.0000000 )
                  (  1.0000000  0.0000000  0.0000000 )
                  (  0.0000000  0.0000000  1.0000000 )


      isym = 31     inv.  90 deg rotation - cart. axis [0,0,-1]  

 cryst.   s(31) = (     0         -1          0      )
                  (     0         -1          1      )
                  (     1         -1          0      )

 cart.    s(31) = (  0.0000000 -1.0000000  0.0000000 )
                  (  1.0000000  0.0000000  0.0000000 )
                  (  0.0000000  0.0000000 -1.0000000 )


      isym = 32     inv.  90 deg rotation - cart. axis [0,0,1]   

 cryst.   s(32) = (    -1          0          1      )
                  (    -1          0          0      )
                  (    -1          1          0      )

 cart.    s(32) = (  0.0000000  1.0000000  0.0000000 )
                  ( -1.0000000  0.0000000  0.0000000 )
                  (  0.0000000  0.0000000 -1.0000000 )


      isym = 33     inv. 180 deg rotation - cart. axis [1,0,1]   

 cryst.   s(33) = (     1          0          0      )
                  (     0          0          1      )
                  (     0          1          0      )

 cart.    s(33) = (  0.0000000  0.0000000 -1.0000000 )
                  (  0.0000000  1.0000000  0.0000000 )
                  ( -1.0000000  0.0000000  0.0000000 )


      isym = 34     inv. 180 deg rotation - cart. axis [-1,0,1]  

 cryst.   s(34) = (    -1          0          0      )
                  (    -1          1          0      )
                  (    -1          0          1      )

 cart.    s(34) = (  0.0000000  0.0000000  1.0000000 )
                  (  0.0000000  1.0000000  0.0000000 )
                  (  1.0000000  0.0000000  0.0000000 )


      isym = 35     inv.  90 deg rotation - cart. axis [0,1,0]   

 cryst.   s(35) = (     0         -1          1      )
                  (     1         -1          0      )
                  (     0         -1          0      )

 cart.    s(35) = (  0.0000000  0.0000000 -1.0000000 )
                  (  0.0000000 -1.0000000  0.0000000 )
                  (  1.0000000  0.0000000  0.0000000 )


      isym = 36     inv.  90 deg rotation - cart. axis [0,-1,0]  

 cryst.   s(36) = (     0          1         -1      )
                  (     0          0         -1      )
                  (     1          0         -1      )

 cart.    s(36) = (  0.0000000  0.0000000  1.0000000 )
                  (  0.0000000 -1.0000000  0.0000000 )
                  ( -1.0000000  0.0000000  0.0000000 )


      isym = 37     inv. 180 deg rotation - cart. axis [0,1,1]   

 cryst.   s(37) = (     1         -1          0      )
                  (     0         -1          0      )
                  (     0         -1          1      )

 cart.    s(37) = (  1.0000000  0.0000000  0.0000000 )
                  (  0.0000000  0.0000000 -1.0000000 )
                  (  0.0000000 -1.0000000  0.0000000 )


      isym = 38     inv. 180 deg rotation - cart. axis [0,1,-1]  

 cryst.   s(38) = (     0          0          1      )
                  (     0          1          0      )
                  (     1          0          0      )

 cart.    s(38) = (  1.0000000  0.0000000  0.0000000 )
                  (  0.0000000  0.0000000  1.0000000 )
                  (  0.0000000  1.0000000  0.0000000 )


      isym = 39     inv.  90 deg rotation - cart. axis [-1,0,0]  

 cryst.   s(39) = (     0          0         -1      )
                  (     1          0         -1      )
                  (     0          1         -1      )

 cart.    s(39) = ( -1.0000000  0.0000000  0.0000000 )
                  (  0.0000000  0.0000000 -1.0000000 )
                  (  0.0000000  1.0000000  0.0000000 )


      isym = 40     inv.  90 deg rotation - cart. axis [1,0,0]   

 cryst.   s(40) = (    -1          1          0      )
                  (    -1          0          1      )
                  (    -1          0          0      )

 cart.    s(40) = ( -1.0000000  0.0000000  0.0000000 )
                  (  0.0000000  0.0000000  1.0000000 )
                  (  0.0000000 -1.0000000  0.0000000 )


      isym = 41     inv. 120 deg rotation - cart. axis [-1,-1,-1]

 cryst.   s(41) = (     1          0         -1      )
                  (     1         -1          0      )
                  (     1          0          0      )

 cart.    s(41) = (  0.0000000 -1.0000000  0.0000000 )
                  (  0.0000000  0.0000000 -1.0000000 )
                  ( -1.0000000  0.0000000  0.0000000 )


      isym = 42     inv. 120 deg rotation - cart. axis [-1,1,1]  

 cryst.   s(42) = (     0         -1          0      )
                  (     0          0         -1      )
                  (    -1          0          0      )

 cart.    s(42) = (  0.0000000  1.0000000  0.0000000 )
                  (  0.0000000  0.0000000 -1.0000000 )
                  (  1.0000000  0.0000000  0.0000000 )


      isym = 43     inv. 120 deg rotation - cart. axis [1,1,-1]  

 cryst.   s(43) = (    -1          0          1      )
                  (     0          0          1      )
                  (     0         -1          1      )

 cart.    s(43) = (  0.0000000 -1.0000000  0.0000000 )
                  (  0.0000000  0.0000000  1.0000000 )
                  (  1.0000000  0.0000000  0.0000000 )


      isym = 44     inv. 120 deg rotation - cart. axis [1,-1,1]  

 cryst.   s(44) = (     0          1          0      )
                  (    -1          1          0      )
                  (     0          1         -1      )

 cart.    s(44) = (  0.0000000  1.0000000  0.0000000 )
                  (  0.0000000  0.0000000  1.0000000 )
                  ( -1.0000000  0.0000000  0.0000000 )


      isym = 45     inv. 120 deg rotation - cart. axis [1,1,1]   

 cryst.   s(45) = (     0          0          1      )
                  (     0         -1          1      )
                  (    -1          0          1      )

 cart.    s(45) = (  0.0000000  0.0000000 -1.0000000 )
                  ( -1.0000000  0.0000000  0.0000000 )
                  (  0.0000000 -1.0000000  0.0000000 )


      isym = 46     inv. 120 deg rotation - cart. axis [-1,1,-1] 

 cryst.   s(46) = (     1         -1          0      )
                  (     1          0          0      )
                  (     1          0         -1      )

 cart.    s(46) = (  0.0000000  0.0000000 -1.0000000 )
                  (  1.0000000  0.0000000  0.0000000 )
                  (  0.0000000  1.0000000  0.0000000 )


      isym = 47     inv. 120 deg rotation - cart. axis [1,-1,-1] 

 cryst.   s(47) = (     0          0         -1      )
                  (    -1          0          0      )
                  (     0         -1          0      )

 cart.    s(47) = (  0.0000000  0.0000000  1.0000000 )
                  (  1.0000000  0.0000000  0.0000000 )
                  (  0.0000000 -1.0000000  0.0000000 )


      isym = 48     inv. 120 deg rotation - cart. axis [-1,-1,1] 

 cryst.   s(48) = (    -1          1          0      )
                  (     0          1         -1      )
                  (     0          1          0      )

 cart.    s(48) = (  0.0000000  0.0000000  1.0000000 )
                  ( -1.0000000  0.0000000  0.0000000 )
                  (  0.0000000  1.0000000  0.0000000 )


     point group O_h (m-3m) 
     there are 10 classes
     the character table:

       E     8C3   3C2   6C4   6C2'  i     8S6   3s_h  6S4   6s_d 
A_1g   1.00  1.00  1.00  1.00  1.00  1.00  1.00  1.00  1.00  1.00
A_2g   1.00  1.00  1.00 -1.00 -1.00  1.00  1.00  1.00 -1.00 -1.00
E_g    2.00 -1.00  2.00  0.00  0.00  2.00 -1.00  2.00  0.00  0.00
T_1g   3.00  0.00 -1.00  1.00 -1.00  3.00  0.00 -1.00  1.00 -1.00
T_2g   3.00  0.00 -1.00 -1.00  1.00  3.00  0.00 -1.00 -1.00  1.00
A_1u   1.00  1.00  1.00  1.00  1.00 -1.00 -1.00 -1.00 -1.00 -1.00
A_2u   1.00  1.00  1.00 -1.00 -1.00 -1.00 -1.00 -1.00  1.00  1.00
E_u    2.00 -1.00  2.00  0.00  0.00 -2.00  1.00 -2.00  0.00  0.00
T_1u   3.00  0.00 -1.00  1.00 -1.00 -3.00  0.00  1.00 -1.00  1.00
T_2u   3.00  0.00 -1.00 -1.00  1.00 -3.00  0.00  1.00  1.00 -1.00

     the symmetry operations in each class and the name of the first element:

     E        1
          identity                                               
     8C3     17   19   20   18   24   21   22   23
          120 deg rotation - cart. axis [-1,-1,-1]               
     3C2      2    4    3
          180 deg rotation - cart. axis [0,0,1]                  
     6C4      7    8   15   16   12   11
           90 deg rotation - cart. axis [0,0,-1]                 
     6C2'     5    6   14   13   10    9
          180 deg rotation - cart. axis [1,1,0]                  
     i       25
          inversion                                              
     8S6     41   43   44   42   48   45   46   47
          inv. 120 deg rotation - cart. axis [-1,-1,-1]          
     3s_h    26   28   27
          inv. 180 deg rotation - cart. axis [0,0,1]             
     6S4     31   32   39   40   36   35
          inv.  90 deg rotation - cart. axis [0,0,-1]            
     6s_d    29   30   38   37   34   33
          inv. 180 deg rotation - cart. axis [1,1,0]             

   Cartesian axes

     site n.     atom                  positions (alat units)
         1        Ca     tau(   1) = (   0.0000000   0.0000000   0.0000000  )
         2        F      tau(   2) = (  -0.2500000   0.2500000   0.2500000  )
         3        F      tau(   3) = (  -0.7500000   0.7500000   0.7500000  )

   Crystallographic axes

     site n.     atom                  positions (cryst. coord.)
         1        Ca     tau(   1) = (  0.0000000  0.0000000  0.0000000  )
         2        F      tau(   2) = (  0.2500000  0.2500000  0.2500000  )
         3        F      tau(   3) = (  0.7500000  0.7500000  0.7500000  )

     number of k points=    16
                       cart. coord. in units 2pi/alat
        k(    1) = (   0.0000000   0.0000000   0.0000000), wk =   0.0092593
        k(    2) = (  -0.1666667   0.1666667  -0.1666667), wk =   0.0740741
        k(    3) = (  -0.3333333   0.3333333  -0.3333333), wk =   0.0740741
        k(    4) = (   0.5000000  -0.5000000   0.5000000), wk =   0.0370370
        k(    5) = (   0.0000000   0.3333333   0.0000000), wk =   0.0555556
        k(    6) = (  -0.1666667   0.5000000  -0.1666667), wk =   0.2222222
        k(    7) = (   0.6666667  -0.3333333   0.6666667), wk =   0.2222222
        k(    8) = (   0.5000000  -0.1666667   0.5000000), wk =   0.2222222
        k(    9) = (   0.3333333   0.0000000   0.3333333), wk =   0.1111111
        k(   10) = (   0.0000000   0.6666667   0.0000000), wk =   0.0555556
        k(   11) = (   0.8333333  -0.1666667   0.8333333), wk =   0.2222222
        k(   12) = (   0.6666667  -0.0000000   0.6666667), wk =   0.1111111
        k(   13) = (   0.0000000  -1.0000000   0.0000000), wk =   0.0277778
        k(   14) = (   0.6666667  -0.3333333   1.0000000), wk =   0.2222222
        k(   15) = (   0.5000000  -0.1666667   0.8333333), wk =   0.2222222
        k(   16) = (  -0.3333333  -1.0000000   0.0000000), wk =   0.1111111

                       cryst. coord.
        k(    1) = (   0.0000000   0.0000000   0.0000000), wk =   0.0092593
        k(    2) = (   0.0000000   0.0000000   0.1666667), wk =   0.0740741
        k(    3) = (   0.0000000   0.0000000   0.3333333), wk =   0.0740741
        k(    4) = (   0.0000000   0.0000000  -0.5000000), wk =   0.0370370
        k(    5) = (   0.0000000   0.1666667   0.1666667), wk =   0.0555556
        k(    6) = (   0.0000000   0.1666667   0.3333333), wk =   0.2222222
        k(    7) = (   0.0000000   0.1666667  -0.5000000), wk =   0.2222222
        k(    8) = (   0.0000000   0.1666667  -0.3333333), wk =   0.2222222
        k(    9) = (   0.0000000   0.1666667  -0.1666667), wk =   0.1111111
        k(   10) = (   0.0000000   0.3333333   0.3333333), wk =   0.0555556
        k(   11) = (   0.0000000   0.3333333  -0.5000000), wk =   0.2222222
        k(   12) = (   0.0000000   0.3333333  -0.3333333), wk =   0.1111111
        k(   13) = (   0.0000000  -0.5000000  -0.5000000), wk =   0.0277778
        k(   14) = (   0.1666667   0.3333333  -0.5000000), wk =   0.2222222
        k(   15) = (   0.1666667   0.3333333  -0.3333333), wk =   0.2222222
        k(   16) = (   0.1666667  -0.5000000  -0.3333333), wk =   0.1111111

     Dense  grid:    26469 G-vectors     FFT dimensions: (  45,  45,  45)

     Dynamical RAM for                 wfc:       0.25 MB

     Dynamical RAM for     wfc (w. buffer):       4.31 MB

     Dynamical RAM for                 EXX:     882.26 MB

     Dynamical RAM for           str. fact:       0.20 MB

     Dynamical RAM for           local pot:       0.00 MB

     Dynamical RAM for          nlocal pot:       0.43 MB

     Dynamical RAM for                qrad:       3.11 MB

     Dynamical RAM for          rho,v,vnew:       0.86 MB

     Dynamical RAM for               rhoin:       0.29 MB

     Dynamical RAM for            rho*nmix:       1.62 MB

     Dynamical RAM for           G-vectors:       0.43 MB

     Dynamical RAM for          h,s,v(r/c):       0.07 MB

     Dynamical RAM for          <psi|beta>:       0.01 MB

     Dynamical RAM for                 psi:       0.51 MB

     Dynamical RAM for                hpsi:       0.51 MB

     Dynamical RAM for      wfcinit/wfcrot:       0.52 MB

     Estimated static dynamical RAM per process >     893.12 MB

     Estimated max dynamical RAM per process >     895.83 MB

     Estimated total dynamical RAM >       3.50 GB
     EXX: ACE will be initialized later

     Initial potential from superposition of free atoms

     starting charge      23.7954, renormalised to      24.0000
     Starting wfcs are random

     total cpu time spent up to now is        0.3 secs

     Self-consistent Calculation

     iteration #  1     ecut=    80.00 Ry     beta= 0.70
     Davidson diagonalization with overlap

---- Real-time Memory Report at c_bands before calling an iterative solver
            72 MiB given to the printing process from OS
             0 MiB allocation reported by mallinfo(arena+hblkhd)
         13529 MiB available memory on the node where the printing process lives
------------------
     ethr =  1.00E-02,  avg # of iterations =  9.5

     Threshold (ethr) on eigenvalues was too large:
     Diagonalizing with lowered threshold

     Davidson diagonalization with overlap

---- Real-time Memory Report at c_bands before calling an iterative solver
            73 MiB given to the printing process from OS
             0 MiB allocation reported by mallinfo(arena+hblkhd)
         13525 MiB available memory on the node where the printing process lives
------------------
     ethr =  8.02E-04,  avg # of iterations =  1.1

     total cpu time spent up to now is        1.4 secs

     total energy              =    -169.75135724 Ry
     estimated scf accuracy    <       0.19796656 Ry

     iteration #  2     ecut=    80.00 Ry     beta= 0.70
     Davidson diagonalization with overlap

---- Real-time Memory Report at c_bands before calling an iterative solver
            76 MiB given to the printing process from OS
             0 MiB allocation reported by mallinfo(arena+hblkhd)
         13514 MiB available memory on the node where the printing process lives
------------------
     ethr =  8.25E-04,  avg # of iterations =  2.2

     total cpu time spent up to now is        1.7 secs

     total energy              =    -169.79497343 Ry
     estimated scf accuracy    <       0.14234377 Ry

     iteration #  3     ecut=    80.00 Ry     beta= 0.70
     Davidson diagonalization with overlap

---- Real-time Memory Report at c_bands before calling an iterative solver
            76 MiB given to the printing process from OS
             0 MiB allocation reported by mallinfo(arena+hblkhd)
         13513 MiB available memory on the node where the printing process lives
------------------
     ethr =  5.93E-04,  avg # of iterations =  2.0

     total cpu time spent up to now is        2.1 secs

     total energy              =    -169.82689986 Ry
     estimated scf accuracy    <       0.00187531 Ry

     iteration #  4     ecut=    80.00 Ry     beta= 0.70
     Davidson diagonalization with overlap

---- Real-time Memory Report at c_bands before calling an iterative solver
            76 MiB given to the printing process from OS
             0 MiB allocation reported by mallinfo(arena+hblkhd)
         13513 MiB available memory on the node where the printing process lives
------------------
     ethr =  7.81E-06,  avg # of iterations =  2.9

     total cpu time spent up to now is        2.4 secs

     total energy              =    -169.82714423 Ry
     estimated scf accuracy    <       0.00001703 Ry

     iteration #  5     ecut=    80.00 Ry     beta= 0.70
     Davidson diagonalization with overlap

---- Real-time Memory Report at c_bands before calling an iterative solver
            76 MiB given to the printing process from OS
             0 MiB allocation reported by mallinfo(arena+hblkhd)
         13512 MiB available memory on the node where the printing process lives
------------------
     ethr =  7.10E-08,  avg # of iterations =  2.3

     total cpu time spent up to now is        2.7 secs

     total energy              =    -169.82714745 Ry
     estimated scf accuracy    <       0.00000276 Ry

     iteration #  6     ecut=    80.00 Ry     beta= 0.70
     Davidson diagonalization with overlap

---- Real-time Memory Report at c_bands before calling an iterative solver
            77 MiB given to the printing process from OS
             0 MiB allocation reported by mallinfo(arena+hblkhd)
         13512 MiB available memory on the node where the printing process lives
------------------
     ethr =  1.15E-08,  avg # of iterations =  2.0

     total cpu time spent up to now is        3.0 secs

     total energy              =    -169.82714807 Ry
     estimated scf accuracy    <       0.00000007 Ry

     iteration #  7     ecut=    80.00 Ry     beta= 0.70
     Davidson diagonalization with overlap

---- Real-time Memory Report at c_bands before calling an iterative solver
            77 MiB given to the printing process from OS
             0 MiB allocation reported by mallinfo(arena+hblkhd)
         13511 MiB available memory on the node where the printing process lives
------------------
     ethr =  3.09E-10,  avg # of iterations =  2.0

     total cpu time spent up to now is        3.3 secs

     End of self-consistent calculation

          k = 0.0000 0.0000 0.0000 (  3287 PWs)   bands (ev):

   -32.6598 -16.4491 -15.6771 -13.5954 -13.5954 -13.5954   1.2982   1.2982
     1.2982   3.1350   3.1350   3.1350  10.7212  12.5687  12.5687  14.6025
    14.6025  14.6025  20.3999  20.3999

     occupation numbers 
     1.0000   1.0000   1.0000   1.0000   1.0000   1.0000   1.0000   1.0000
     1.0000   1.0000   1.0000   1.0000   0.0000   0.0000   0.0000   0.0000
     0.0000   0.0000   0.0000   0.0000

          k =-0.1667 0.1667-0.1667 (  3329 PWs)   bands (ev):

   -32.6516 -16.5160 -15.7500 -13.6057 -13.6057 -13.4733   1.4190   1.4190
     1.5125   2.8398   3.0131   3.0131  11.3901  12.6226  12.6226  14.3690
    14.5362  14.5362  19.2674  20.9742

     occupation numbers 
     1.0000   1.0000   1.0000   1.0000   1.0000   1.0000   1.0000   1.0000
     1.0000   1.0000   1.0000   1.0000   0.0000   0.0000   0.0000   0.0000
     0.0000   0.0000   0.0000   0.0000

          k =-0.3333 0.3333-0.3333 (  3305 PWs)   bands (ev):

   -32.6353 -16.5878 -15.9613 -13.6262 -13.6262 -13.2183   1.7013   1.7013
     1.9269   2.3539   2.7396   2.7396  12.5875  12.7280  12.7280  14.1890
    14.4035  14.4035  17.6852  22.3385

     occupation numbers 
     1.0000   1.0000   1.0000   1.0000   1.0000   1.0000   1.0000   1.0000
     1.0000   1.0000   1.0000   1.0000   0.0000   0.0000   0.0000   0.0000
     0.0000   0.0000   0.0000   0.0000

          k = 0.5000-0.5000 0.5000 (  3316 PWs)   bands (ev):

   -32.6270 -16.5862 -16.1032 -13.6364 -13.6364 -13.0884   1.8921   1.8921
     2.1114   2.1612   2.5586   2.5586  12.7789  12.7789  13.1466  14.1601
    14.3375  14.3375  17.1490  23.2528

     occupation numbers 
     1.0000   1.0000   1.0000   1.0000   1.0000   1.0000   1.0000   1.0000
     1.0000   1.0000   1.0000   1.0000   0.0000   0.0000   0.0000   0.0000
     0.0000   0.0000   0.0000   0.0000

          k = 0.0000 0.3333 0.0000 (  3327 PWs)   bands (ev):

   -32.6489 -16.5480 -15.7556 -13.6211 -13.6211 -13.4172   1.3807   1.3807
     1.7608   2.4149   3.1461   3.1461  11.6021  12.5018  12.7719  14.2654
    14.4975  14.4975  19.9265  20.5953

     occupation numbers 
     1.0000   1.0000   1.0000   1.0000   1.0000   1.0000   1.0000   1.0000
     1.0000   1.0000   1.0000   1.0000   0.0000   0.0000   0.0000   0.0000
     0.0000   0.0000   0.0000   0.0000

          k =-0.1667 0.5000-0.1667 (  3328 PWs)   bands (ev):

   -32.6353 -16.6171 -15.9201 -13.6441 -13.5912 -13.2472   1.5399   1.5531
     1.8681   2.2707   2.9944   3.0207  12.1357  12.9323  12.9725  13.8868
    14.3873  14.5502  18.6661  21.1943

     occupation numbers 
     1.0000   1.0000   1.0000   1.0000   1.0000   1.0000   1.0000   1.0000
     1.0000   1.0000   1.0000   1.0000   0.0000   0.0000   0.0000   0.0000
     0.0000   0.0000   0.0000   0.0000

          k = 0.6667-0.3333 0.6667 (  3321 PWs)   bands (ev):

   -32.6244 -16.5690 -16.1766 -13.6518 -13.5201 -13.1421   1.5109   1.7601
     1.8343   2.6538   2.6996   2.8338  12.2487  12.9356  13.2237  13.8382
    14.3111  15.2968  17.5319  21.9283

     occupation numbers 
     1.0000   1.0000   1.0000   1.0000   1.0000   1.0000   1.0000   1.0000
     1.0000   1.0000   1.0000   1.0000   0.0000   0.0000   0.0000   0.0000
     0.0000   0.0000   0.0000   0.0000

          k = 0.5000-0.1667 0.5000 (  3334 PWs)   bands (ev):

   -32.6271 -16.5570 -16.1497 -13.6366 -13.5022 -13.2045   1.4326   1.9163
     2.0321   2.4054   2.4167   3.0562  12.2994  12.7878  13.2300  13.8304
    14.3457  15.1172  17.8188  20.8573

     occupation numbers 
     1.0000   1.0000   1.0000   1.0000   1.0000   1.0000   1.0000   1.0000
     1.0000   1.0000   1.0000   1.0000   0.0000   0.0000   0.0000   0.0000
     0.0000   0.0000   0.0000   0.0000

          k = 0.3333 0.0000 0.3333 (  3325 PWs)   bands (ev):

   -32.6407 -16.5718 -15.8869 -13.6135 -13.5679 -13.3576   1.3828   1.6986
     1.9199   2.3496   2.6844   3.1623  12.0961  12.6348  12.8314  14.0433
    14.4609  14.5603  18.8094  20.4475

     occupation numbers 
     1.0000   1.0000   1.0000   1.0000   1.0000   1.0000   1.0000   1.0000
     1.0000   1.0000   1.0000   1.0000   0.0000   0.0000   0.0000   0.0000
     0.0000   0.0000   0.0000   0.0000

          k = 0.0000 0.6667 0.0000 (  3347 PWs)   bands (ev):

   -32.6272 -16.7191 -15.9075 -13.6723 -13.6723 -13.0791   1.2251   1.6004
     1.6004   2.7944   3.1001   3.1001  11.8201  13.2195  13.4371  14.1121
    14.3228  14.3228  19.9431  20.8779

     occupation numbers 
     1.0000   1.0000   1.0000   1.0000   1.0000   1.0000   1.0000   1.0000
     1.0000   1.0000   1.0000   1.0000   0.0000   0.0000   0.0000   0.0000
     0.0000   0.0000   0.0000   0.0000

          k = 0.8333-0.1667 0.8333 (  3314 PWs)   bands (ev):

   -32.6190 -16.6982 -16.0893 -13.6825 -13.5793 -13.0283   0.9601   1.6821
     1.7698   2.9289   3.0015   3.1903  11.7340  13.1322  13.2792  13.9001
    14.2679  16.1290  18.7827  19.7757

     occupation numbers 
     1.0000   1.0000   1.0000   1.0000   1.0000   1.0000   1.0000   1.0000
     1.0000   1.0000   1.0000   1.0000   0.0000   0.0000   0.0000   0.0000
     0.0000   0.0000   0.0000   0.0000

          k = 0.6667-0.0000 0.6667 (  3318 PWs)   bands (ev):

   -32.6189 -16.4763 -16.3704 -13.6648 -13.3724 -13.1935   1.1249   1.6689
     2.0070   2.5619   2.8571   3.2341  11.9194  13.0521  13.2334  13.6232
    14.2741  16.7503  18.5745  18.7333

     occupation numbers 
     1.0000   1.0000   1.0000   1.0000   1.0000   1.0000   1.0000   1.0000
     1.0000   1.0000   1.0000   1.0000   0.0000   0.0000   0.0000   0.0000
     0.0000   0.0000   0.0000   0.0000

          k = 0.0000-1.0000 0.0000 (  3306 PWs)   bands (ev):

   -32.6163 -16.7945 -15.9811 -13.6977 -13.6977 -12.9155   0.7068   1.7513
     1.7513   3.0288   3.0288   3.3900  11.5275  12.9201  13.4693  14.2520
    14.2520  16.7294  18.2297  20.1619

     occupation numbers 
     1.0000   1.0000   1.0000   1.0000   1.0000   1.0000   1.0000   1.0000
     1.0000   1.0000   1.0000   1.0000   0.0000   0.0000   0.0000   0.0000
     0.0000   0.0000   0.0000   0.0000

          k = 0.6667-0.3333 1.0000 (  3317 PWs)   bands (ev):

   -32.6244 -16.6116 -16.1235 -13.6642 -13.4857 -13.1745   1.3868   1.4632
     1.9282   2.6686   2.7860   3.1430  11.9933  13.0142  13.4914  13.5222
    14.3214  15.3809  18.7314  20.1715

     occupation numbers 
     1.0000   1.0000   1.0000   1.0000   1.0000   1.0000   1.0000   1.0000
     1.0000   1.0000   1.0000   1.0000   0.0000   0.0000   0.0000   0.0000
     0.0000   0.0000   0.0000   0.0000

          k = 0.5000-0.1667 0.8333 (  3314 PWs)   bands (ev):

   -32.6189 -16.4805 -16.3657 -13.6783 -13.3390 -13.2139   1.3153   1.3466
     2.2345   2.3944   3.0534   3.1082  11.9623  13.0402  13.2995  13.5218
    14.2828  16.6729  18.0076  20.3459

     occupation numbers 
     1.0000   1.0000   1.0000   1.0000   1.0000   1.0000   1.0000   1.0000
     1.0000   1.0000   1.0000   1.0000   0.0000   0.0000   0.0000   0.0000
     0.0000   0.0000   0.0000   0.0000

          k =-0.3333-1.0000 0.0000 (  3322 PWs)   bands (ev):

   -32.6162 -16.6278 -16.2319 -13.6995 -13.4536 -13.0732   0.9515   1.4833
     2.0449   2.6814   3.0852   3.3287  11.7538  13.0976  13.2373  13.6680
    14.2667  17.9409  18.0062  19.2060

     occupation numbers 
     1.0000   1.0000   1.0000   1.0000   1.0000   1.0000   1.0000   1.0000
     1.0000   1.0000   1.0000   1.0000   0.0000   0.0000   0.0000   0.0000
     0.0000   0.0000   0.0000   0.0000

     highest occupied, lowest unoccupied level (ev):     3.3900   10.7212

!    total energy              =    -169.82714808 Ry
     estimated scf accuracy    <          3.6E-09 Ry

     convergence has been achieved in   7 iterations

     Using ACE for calculation of exact exchange

     EXX grid:    26469 G-vectors     FFT dimensions: (  45,  45,  45)
     ACE projected onto    20 (nbndproj) and applied to    20 (nbnd) bands

     EXX: now go back to refine exchange calculation

     total cpu time spent up to now is      697.1 secs

     Self-consistent Calculation

     iteration #  1     ecut=    80.00 Ry     beta= 0.70
     Davidson diagonalization with overlap

---- Real-time Memory Report at c_bands before calling an iterative solver
          1891 MiB given to the printing process from OS
             0 MiB allocation reported by mallinfo(arena+hblkhd)
          6314 MiB available memory on the node where the printing process lives
------------------
     ethr =  3.09E-10,  avg # of iterations =  8.0

     total cpu time spent up to now is      697.9 secs

     total energy              =    -169.83585172 Ry
     estimated scf accuracy    <       0.00880511 Ry

     iteration #  2     ecut=    80.00 Ry     beta= 0.70
     Davidson diagonalization with overlap

---- Real-time Memory Report at c_bands before calling an iterative solver
          1891 MiB given to the printing process from OS
             0 MiB allocation reported by mallinfo(arena+hblkhd)
          6312 MiB available memory on the node where the printing process lives
------------------
     ethr =  3.67E-05,  avg # of iterations =  2.0

     total cpu time spent up to now is      698.2 secs

     total energy              =    -169.83797445 Ry
     estimated scf accuracy    <       0.00225221 Ry

     iteration #  3     ecut=    80.00 Ry     beta= 0.70
     Davidson diagonalization with overlap

---- Real-time Memory Report at c_bands before calling an iterative solver
          1891 MiB given to the printing process from OS
             0 MiB allocation reported by mallinfo(arena+hblkhd)
          6311 MiB available memory on the node where the printing process lives
------------------
     ethr =  9.38E-06,  avg # of iterations =  2.0

     total cpu time spent up to now is      698.6 secs

     total energy              =    -169.83853993 Ry
     estimated scf accuracy    <       0.00005121 Ry

     iteration #  4     ecut=    80.00 Ry     beta= 0.70
     Davidson diagonalization with overlap

---- Real-time Memory Report at c_bands before calling an iterative solver
          1891 MiB given to the printing process from OS
             0 MiB allocation reported by mallinfo(arena+hblkhd)
          6310 MiB available memory on the node where the printing process lives
------------------
     ethr =  2.13E-07,  avg # of iterations =  1.2

     total cpu time spent up to now is      698.9 secs

     total energy              =    -169.83854595 Ry
     estimated scf accuracy    <       0.00000036 Ry

     iteration #  5     ecut=    80.00 Ry     beta= 0.70
     Davidson diagonalization with overlap

---- Real-time Memory Report at c_bands before calling an iterative solver
          1891 MiB given to the printing process from OS
             0 MiB allocation reported by mallinfo(arena+hblkhd)
          6309 MiB available memory on the node where the printing process lives
------------------
     ethr =  1.48E-09,  avg # of iterations =  2.0

     total cpu time spent up to now is      699.2 secs

     total energy              =    -169.83854601 Ry
     estimated scf accuracy    <       0.00000001 Ry

     iteration #  6     ecut=    80.00 Ry     beta= 0.70
     Davidson diagonalization with overlap

---- Real-time Memory Report at c_bands before calling an iterative solver
          1891 MiB given to the printing process from OS
             0 MiB allocation reported by mallinfo(arena+hblkhd)
          6308 MiB available memory on the node where the printing process lives
------------------
     ethr =  4.78E-11,  avg # of iterations =  2.0

     total cpu time spent up to now is      699.5 secs

     End of self-consistent calculation

          k = 0.0000 0.0000 0.0000 (  3287 PWs)   bands (ev):

   -41.8006 -25.3191 -24.5708 -18.7837 -18.7837 -18.7837  -3.0688  -3.0688
    -3.0688  -1.0471  -1.0471  -1.0471  11.8921  15.2226  15.2226  17.7832
    17.7832  17.7832  22.0897  22.0897

     occupation numbers 
     1.0000   1.0000   1.0000   1.0000   1.0000   1.0000   1.0000   1.0000
     1.0000   1.0000   1.0000   1.0000   0.0000   0.0000   0.0000   0.0000
     0.0000   0.0000   0.0000   0.0000

          k =-0.1667 0.1667-0.1667 (  3329 PWs)   bands (ev):

   -41.7914 -25.3330 -24.6363 -18.7974 -18.7973 -18.7247  -2.9349  -2.9349
    -2.8337  -1.3607  -1.1796  -1.1796  12.6230  15.2749  15.2762  17.4697
    17.6995  17.6996  20.9523  22.7736

     occupation numbers 
     1.0000   1.0000   1.0000   1.0000   1.0000   1.0000   1.0000   1.0000
     1.0000   1.0000   1.0000   1.0000   0.0000   0.0000   0.0000   0.0000
     0.0000   0.0000   0.0000   0.0000

          k =-0.3333 0.3333-0.3333 (  3305 PWs)   bands (ev):

   -41.7729 -25.3089 -24.8254 -18.8245 -18.8245 -18.5924  -2.6155  -2.6155
    -2.3787  -1.9023  -1.4875  -1.4875  14.1184  15.3930  15.3951  16.9352
    17.5335  17.5335  19.5236  24.4231

     occupation numbers 
     1.0000   1.0000   1.0000   1.0000   1.0000   1.0000   1.0000   1.0000
     1.0000   1.0000   1.0000   1.0000   0.0000   0.0000   0.0000   0.0000
     0.0000   0.0000   0.0000   0.0000

          k = 0.5000-0.5000 0.5000 (  3316 PWs)   bands (ev):

   -41.7637 -25.2347 -24.9849 -18.8379 -18.8379 -18.5197  -2.3884  -2.3884
    -2.2004  -2.1008  -1.7049  -1.7049  15.4598  15.4598  15.5479  15.7385
    17.4503  17.4503  19.4347  25.5568

     occupation numbers 
     1.0000   1.0000   1.0000   1.0000   1.0000   1.0000   1.0000   1.0000
     1.0000   1.0000   1.0000   1.0000   0.0000   0.0000   0.0000   0.0000
     0.0000   0.0000   0.0000   0.0000

          k = 0.0000 0.3333 0.0000 (  3327 PWs)   bands (ev):

   -41.7884 -25.3458 -24.6471 -18.8172 -18.8171 -18.6771  -2.9811  -2.9811
    -2.5550  -1.8155  -1.0377  -1.0377  12.8584  15.0435  15.4974  17.3282
    17.6560  17.6564  21.7146  22.4134

     occupation numbers 
     1.0000   1.0000   1.0000   1.0000   1.0000   1.0000   1.0000   1.0000
     1.0000   1.0000   1.0000   1.0000   0.0000   0.0000   0.0000   0.0000
     0.0000   0.0000   0.0000   0.0000

          k =-0.1667 0.5000-0.1667 (  3328 PWs)   bands (ev):

   -41.7730 -25.3452 -24.7814 -18.8473 -18.8164 -18.5862  -2.8001  -2.7913
    -2.4298  -1.9930  -1.2030  -1.1765  13.8703  15.1807  15.7016  16.7929
    17.5254  17.6233  20.5752  23.2290

     occupation numbers 
     1.0000   1.0000   1.0000   1.0000   1.0000   1.0000   1.0000   1.0000
     1.0000   1.0000   1.0000   1.0000   0.0000   0.0000   0.0000   0.0000
     0.0000   0.0000   0.0000   0.0000

          k = 0.6667-0.3333 0.6667 (  3321 PWs)   bands (ev):

   -41.7606 -25.2458 -24.9970 -18.8576 -18.7790 -18.5491  -2.8127  -2.5831
    -2.4722  -1.5702  -1.5344  -1.3881  14.3468  15.6841  15.8051  16.4217
    17.4276  17.8359  19.7361  24.3664

     occupation numbers 
     1.0000   1.0000   1.0000   1.0000   1.0000   1.0000   1.0000   1.0000
     1.0000   1.0000   1.0000   1.0000   0.0000   0.0000   0.0000   0.0000
     0.0000   0.0000   0.0000   0.0000

          k = 0.5000-0.1667 0.5000 (  3334 PWs)   bands (ev):

   -41.7637 -25.2605 -24.9565 -18.8381 -18.7682 -18.5924  -2.9105  -2.3995
    -2.2452  -1.8580  -1.8421  -1.1376  14.2772  15.4628  15.7413  16.6160
    17.4637  17.8224  19.8880  23.0762

     occupation numbers 
     1.0000   1.0000   1.0000   1.0000   1.0000   1.0000   1.0000   1.0000
     1.0000   1.0000   1.0000   1.0000   0.0000   0.0000   0.0000   0.0000
     0.0000   0.0000   0.0000   0.0000

          k = 0.3333 0.0000 0.3333 (  3325 PWs)   bands (ev):

   -41.7791 -25.3336 -24.7435 -18.8080 -18.7997 -18.6634  -2.9743  -2.6242
    -2.3860  -1.9019  -1.5359  -1.0212  13.5135  15.2614  15.4291  17.0597
    17.6038  17.6538  20.6427  22.3560

     occupation numbers 
     1.0000   1.0000   1.0000   1.0000   1.0000   1.0000   1.0000   1.0000
     1.0000   1.0000   1.0000   1.0000   0.0000   0.0000   0.0000   0.0000
     0.0000   0.0000   0.0000   0.0000

          k = 0.0000 0.6667 0.0000 (  3347 PWs)   bands (ev):

   -41.7638 -25.3964 -24.7955 -18.8834 -18.8833 -18.4584  -3.1247  -2.7503
    -2.7503  -1.4177  -1.0852  -1.0852  13.7922  15.8861  16.1238  16.2349
    17.4639  17.4641  22.1447  22.9531

     occupation numbers 
     1.0000   1.0000   1.0000   1.0000   1.0000   1.0000   1.0000   1.0000
     1.0000   1.0000   1.0000   1.0000   0.0000   0.0000   0.0000   0.0000
     0.0000   0.0000   0.0000   0.0000

          k = 0.8333-0.1667 0.8333 (  3314 PWs)   bands (ev):

   -41.7545 -25.3532 -24.9238 -18.8967 -18.8444 -18.4361  -3.4281  -2.6616
    -2.5661  -1.2687  -1.1928  -0.9896  13.7227  15.8269  16.1937  16.6020
    17.3987  18.4198  21.0891  22.0751

     occupation numbers 
     1.0000   1.0000   1.0000   1.0000   1.0000   1.0000   1.0000   1.0000
     1.0000   1.0000   1.0000   1.0000   0.0000   0.0000   0.0000   0.0000
     0.0000   0.0000   0.0000   0.0000

          k = 0.6667-0.0000 0.6667 (  3318 PWs)   bands (ev):

   -41.7545 -25.1762 -25.1176 -18.8743 -18.7161 -18.5693  -3.2571  -2.6675
    -2.2976  -1.6695  -1.3635  -0.9382  13.9325  15.8405  15.8694  16.4235
    17.3901  19.2178  20.8088  20.9435

     occupation numbers 
     1.0000   1.0000   1.0000   1.0000   1.0000   1.0000   1.0000   1.0000
     1.0000   1.0000   1.0000   1.0000   0.0000   0.0000   0.0000   0.0000
     0.0000   0.0000   0.0000   0.0000

          k = 0.0000-1.0000 0.0000 (  3306 PWs)   bands (ev):

   -41.7514 -25.4206 -24.8678 -18.9161 -18.9161 -18.3460  -3.7030  -2.5951
    -2.5951  -1.1550  -1.1550  -0.7754  13.4699  15.5781  16.4896  17.3937
    17.3938  18.4427  20.6772  22.5811

     occupation numbers 
     1.0000   1.0000   1.0000   1.0000   1.0000   1.0000   1.0000   1.0000
     1.0000   1.0000   1.0000   1.0000   0.0000   0.0000   0.0000   0.0000
     0.0000   0.0000   0.0000   0.0000

          k = 0.6667-0.3333 1.0000 (  3317 PWs)   bands (ev):

   -41.7606 -25.3069 -24.9283 -18.8744 -18.7718 -18.5476  -2.9407  -2.9122
    -2.3833  -1.5630  -1.4312  -1.0378  13.9867  15.6998  16.0204  16.2974
    17.4571  18.0243  20.8906  22.3430

     occupation numbers 
     1.0000   1.0000   1.0000   1.0000   1.0000   1.0000   1.0000   1.0000
     1.0000   1.0000   1.0000   1.0000   0.0000   0.0000   0.0000   0.0000
     0.0000   0.0000   0.0000   0.0000

          k = 0.5000-0.1667 0.8333 (  3314 PWs)   bands (ev):

   -41.7544 -25.1778 -25.1159 -18.8924 -18.6698 -18.5975  -3.0883  -2.9766
    -2.0398  -1.8760  -1.1344  -1.0796  13.9872  15.8196  15.9845  16.2261
    17.4165  19.0924  20.2524  22.7734

     occupation numbers 
     1.0000   1.0000   1.0000   1.0000   1.0000   1.0000   1.0000   1.0000
     1.0000   1.0000   1.0000   1.0000   0.0000   0.0000   0.0000   0.0000
     0.0000   0.0000   0.0000   0.0000

          k =-0.3333-1.0000 0.0000 (  3322 PWs)   bands (ev):

   -41.7514 -25.2926 -25.0170 -18.9183 -18.7609 -18.4769  -3.4510  -2.8666
    -2.2656  -1.5483  -1.0925  -0.8424  13.7440  15.7686  16.1206  16.4159
    17.4147  20.1883  20.4868  21.4255

     occupation numbers 
     1.0000   1.0000   1.0000   1.0000   1.0000   1.0000   1.0000   1.0000
     1.0000   1.0000   1.0000   1.0000   0.0000   0.0000   0.0000   0.0000
     0.0000   0.0000   0.0000   0.0000

     highest occupied, lowest unoccupied level (ev):    -0.7754   11.8921

!    total energy              =    -169.83854601 Ry
     estimated scf accuracy    <          1.3E-09 Ry

     convergence has been achieved in   6 iterations

     Using ACE for calculation of exact exchange
     ACE projected onto    20 (nbndproj) and applied to    20 (nbnd) bands

     total energy              =    -169.84318386 Ry
     Harris-Foulkes estimate   =    -169.84318386 Ry
     est. exchange err (dexx)  =       0.00463785 Ry
     - averaged Fock potential =      32.88127286 Ry
     + Fock energy (ACE)       =     -16.49796023 Ry

     EXX: now go back to refine exchange calculation

     total cpu time spent up to now is     1466.5 secs

     Self-consistent Calculation

     iteration #  1     ecut=    80.00 Ry     beta= 0.70
     Davidson diagonalization with overlap

---- Real-time Memory Report at c_bands before calling an iterative solver
          1891 MiB given to the printing process from OS
             0 MiB allocation reported by mallinfo(arena+hblkhd)
          6323 MiB available memory on the node where the printing process lives
------------------
     ethr =  4.78E-11,  avg # of iterations =  6.5

     total cpu time spent up to now is     1467.3 secs

     total energy              =    -169.84389752 Ry
     estimated scf accuracy    <       0.00026246 Ry

     iteration #  2     ecut=    80.00 Ry     beta= 0.70
     Davidson diagonalization with overlap

---- Real-time Memory Report at c_bands before calling an iterative solver
          1891 MiB given to the printing process from OS
             0 MiB allocation reported by mallinfo(arena+hblkhd)
          6311 MiB available memory on the node where the printing process lives
------------------
     ethr =  1.09E-06,  avg # of iterations =  2.0

     total cpu time spent up to now is     1467.6 secs

     total energy              =    -169.84395905 Ry
     estimated scf accuracy    <       0.00006461 Ry

     iteration #  3     ecut=    80.00 Ry     beta= 0.70
     Davidson diagonalization with overlap

---- Real-time Memory Report at c_bands before calling an iterative solver
          1891 MiB given to the printing process from OS
             0 MiB allocation reported by mallinfo(arena+hblkhd)
          6311 MiB available memory on the node where the printing process lives
------------------
     ethr =  2.69E-07,  avg # of iterations =  2.0

     total cpu time spent up to now is     1468.0 secs

     total energy              =    -169.84397529 Ry
     estimated scf accuracy    <       0.00000152 Ry

     iteration #  4     ecut=    80.00 Ry     beta= 0.70
     Davidson diagonalization with overlap

---- Real-time Memory Report at c_bands before calling an iterative solver
          1891 MiB given to the printing process from OS
             0 MiB allocation reported by mallinfo(arena+hblkhd)
          6311 MiB available memory on the node where the printing process lives
------------------
     ethr =  6.35E-09,  avg # of iterations =  1.3

     total cpu time spent up to now is     1468.3 secs

     total energy              =    -169.84397546 Ry
     estimated scf accuracy    <       0.00000001 Ry

     iteration #  5     ecut=    80.00 Ry     beta= 0.70
     Davidson diagonalization with overlap

---- Real-time Memory Report at c_bands before calling an iterative solver
          1891 MiB given to the printing process from OS
             0 MiB allocation reported by mallinfo(arena+hblkhd)
          6310 MiB available memory on the node where the printing process lives
------------------
     ethr =  5.80E-11,  avg # of iterations =  2.0

     total cpu time spent up to now is     1468.7 secs

     End of self-consistent calculation

          k = 0.0000 0.0000 0.0000 (  3287 PWs)   bands (ev):

   -41.8318 -25.3717 -24.6330 -18.7876 -18.7876 -18.7876  -3.0668  -3.0668
    -3.0668  -1.0837  -1.0837  -1.0837  11.9913  15.2485  15.2485  17.8083
    17.8083  17.8083  22.1414  22.1414

     occupation numbers 
     1.0000   1.0000   1.0000   1.0000   1.0000   1.0000   1.0000   1.0000
     1.0000   1.0000   1.0000   1.0000   0.0000   0.0000   0.0000   0.0000
     0.0000   0.0000   0.0000   0.0000

          k =-0.1667 0.1667-0.1667 (  3329 PWs)   bands (ev):

   -41.8228 -25.3840 -24.6974 -18.8008 -18.8008 -18.7303  -2.9352  -2.9352
    -2.8373  -1.3859  -1.2128  -1.2128  12.7100  15.2993  15.2993  17.4985
    17.7263  17.7263  21.0057  22.8201

     occupation numbers 
     1.0000   1.0000   1.0000   1.0000   1.0000   1.0000   1.0000   1.0000
     1.0000   1.0000   1.0000   1.0000   0.0000   0.0000   0.0000   0.0000
     0.0000   0.0000   0.0000   0.0000

          k =-0.3333 0.3333-0.3333 (  3305 PWs)   bands (ev):

   -41.8048 -25.3576 -24.8834 -18.8270 -18.8269 -18.6017  -2.6200  -2.6200
    -2.3926  -1.9135  -1.5156  -1.5156  14.1908  15.4143  15.4143  16.9726
    17.5637  17.5637  19.5743  24.4608

     occupation numbers 
     1.0000   1.0000   1.0000   1.0000   1.0000   1.0000   1.0000   1.0000
     1.0000   1.0000   1.0000   1.0000   0.0000   0.0000   0.0000   0.0000
     0.0000   0.0000   0.0000   0.0000

          k = 0.5000-0.5000 0.5000 (  3316 PWs)   bands (ev):

   -41.7958 -25.2822 -25.0413 -18.8399 -18.8399 -18.5311  -2.3933  -2.3933
    -2.2089  -2.1172  -1.7325  -1.7324  15.4778  15.4778  15.6117  15.7928
    17.4821  17.4821  19.4753  25.6011

     occupation numbers 
     1.0000   1.0000   1.0000   1.0000   1.0000   1.0000   1.0000   1.0000
     1.0000   1.0000   1.0000   1.0000   0.0000   0.0000   0.0000   0.0000
     0.0000   0.0000   0.0000   0.0000

          k = 0.0000 0.3333 0.0000 (  3327 PWs)   bands (ev):

   -41.8199 -25.3961 -24.7082 -18.8198 -18.8198 -18.6843  -2.9831  -2.9831
    -2.5599  -1.8325  -1.0724  -1.0724  12.9411  15.0719  15.5199  17.3563
    17.6849  17.6849  21.7608  22.4614

     occupation numbers 
     1.0000   1.0000   1.0000   1.0000   1.0000   1.0000   1.0000   1.0000
     1.0000   1.0000   1.0000   1.0000   0.0000   0.0000   0.0000   0.0000
     0.0000   0.0000   0.0000   0.0000

          k =-0.1667 0.5000-0.1667 (  3328 PWs)   bands (ev):

   -41.8048 -25.3936 -24.8400 -18.8489 -18.8190 -18.5960  -2.8060  -2.7981
    -2.4355  -2.0079  -1.2319  -1.2070  13.9329  15.2150  15.7214  16.8270
    17.5574  17.6547  20.6207  23.2716

     occupation numbers 
     1.0000   1.0000   1.0000   1.0000   1.0000   1.0000   1.0000   1.0000
     1.0000   1.0000   1.0000   1.0000   0.0000   0.0000   0.0000   0.0000
     0.0000   0.0000   0.0000   0.0000

          k = 0.6667-0.3333 0.6667 (  3321 PWs)   bands (ev):

   -41.7928 -25.2940 -25.0518 -18.8589 -18.7828 -18.5597  -2.8138  -2.5919
    -2.4827  -1.5941  -1.5590  -1.4132  14.3938  15.7003  15.8594  16.4582
    17.4609  17.8700  19.7774  24.3923

     occupation numbers 
     1.0000   1.0000   1.0000   1.0000   1.0000   1.0000   1.0000   1.0000
     1.0000   1.0000   1.0000   1.0000   0.0000   0.0000   0.0000   0.0000
     0.0000   0.0000   0.0000   0.0000

          k = 0.5000-0.1667 0.5000 (  3334 PWs)   bands (ev):

   -41.7958 -25.3093 -25.0116 -18.8401 -18.7723 -18.6017  -2.9146  -2.4054
    -2.2537  -1.8812  -1.8644  -1.1663  14.3366  15.4795  15.7775  16.6570
    17.4954  17.8556  19.9314  23.1139

     occupation numbers 
     1.0000   1.0000   1.0000   1.0000   1.0000   1.0000   1.0000   1.0000
     1.0000   1.0000   1.0000   1.0000   0.0000   0.0000   0.0000   0.0000
     0.0000   0.0000   0.0000   0.0000

          k = 0.3333 0.0000 0.3333 (  3325 PWs)   bands (ev):

   -41.8108 -25.3830 -24.8026 -18.8111 -18.8029 -18.6708  -2.9773  -2.6280
    -2.3980  -1.9151  -1.5628  -1.0543  13.5891  15.2813  15.4546  17.0933
    17.6322  17.6842  20.6907  22.4013

     occupation numbers 
     1.0000   1.0000   1.0000   1.0000   1.0000   1.0000   1.0000   1.0000
     1.0000   1.0000   1.0000   1.0000   0.0000   0.0000   0.0000   0.0000
     0.0000   0.0000   0.0000   0.0000

          k = 0.0000 0.6667 0.0000 (  3347 PWs)   bands (ev):

   -41.7959 -25.4426 -24.8544 -18.8837 -18.8837 -18.4723  -3.1169  -2.7626
    -2.7626  -1.4414  -1.1139  -1.1139  13.8375  15.9399  16.1394  16.2742
    17.4992  17.4992  22.1627  22.9977

     occupation numbers 
     1.0000   1.0000   1.0000   1.0000   1.0000   1.0000   1.0000   1.0000
     1.0000   1.0000   1.0000   1.0000   0.0000   0.0000   0.0000   0.0000
     0.0000   0.0000   0.0000   0.0000

          k = 0.8333-0.1667 0.8333 (  3314 PWs)   bands (ev):

   -41.7868 -25.3992 -24.9800 -18.8967 -18.8459 -18.4504  -3.4180  -2.6753
    -2.5831  -1.2920  -1.2184  -1.0220  13.7668  15.8732  16.2069  16.6535
    17.4352  18.4583  21.1229  22.1061

     occupation numbers 
     1.0000   1.0000   1.0000   1.0000   1.0000   1.0000   1.0000   1.0000
     1.0000   1.0000   1.0000   1.0000   0.0000   0.0000   0.0000   0.0000
     0.0000   0.0000   0.0000   0.0000

          k = 0.6667-0.0000 0.6667 (  3318 PWs)   bands (ev):

   -41.7868 -25.2258 -25.1693 -18.8750 -18.7216 -18.5796  -3.2550  -2.6741
    -2.3170  -1.6859  -1.3919  -0.9694  13.9819  15.8540  15.9125  16.4746
    17.4249  19.2469  20.8460  20.9852

     occupation numbers 
     1.0000   1.0000   1.0000   1.0000   1.0000   1.0000   1.0000   1.0000
     1.0000   1.0000   1.0000   1.0000   0.0000   0.0000   0.0000   0.0000
     0.0000   0.0000   0.0000   0.0000

          k = 0.0000-1.0000 0.0000 (  3306 PWs)   bands (ev):

   -41.7838 -25.4648 -24.9257 -18.9154 -18.9154 -18.3631  -3.6867  -2.6145
    -2.6145  -1.1784  -1.1784  -0.8122  13.5205  15.6274  16.5021  17.4317
    17.4317  18.5012  20.7109  22.6079

     occupation numbers 
     1.0000   1.0000   1.0000   1.0000   1.0000   1.0000   1.0000   1.0000
     1.0000   1.0000   1.0000   1.0000   0.0000   0.0000   0.0000   0.0000
     0.0000   0.0000   0.0000   0.0000

          k = 0.6667-0.3333 1.0000 (  3317 PWs)   bands (ev):

   -41.7928 -25.3548 -24.9838 -18.8751 -18.7758 -18.5585  -2.9382  -2.9203
    -2.3971  -1.5865  -1.4561  -1.0667  14.0352  15.7295  16.0515  16.3421
    17.4916  18.0579  20.9268  22.3840

     occupation numbers 
     1.0000   1.0000   1.0000   1.0000   1.0000   1.0000   1.0000   1.0000
     1.0000   1.0000   1.0000   1.0000   0.0000   0.0000   0.0000   0.0000
     0.0000   0.0000   0.0000   0.0000

          k = 0.5000-0.1667 0.8333 (  3314 PWs)   bands (ev):

   -41.7868 -25.2274 -25.1677 -18.8924 -18.6771 -18.6068  -3.0909  -2.9781
    -2.0558  -1.8986  -1.1587  -1.1123  14.0350  15.8380  16.0304  16.2731
    17.4526  19.1228  20.2926  22.8049

     occupation numbers 
     1.0000   1.0000   1.0000   1.0000   1.0000   1.0000   1.0000   1.0000
     1.0000   1.0000   1.0000   1.0000   0.0000   0.0000   0.0000   0.0000
     0.0000   0.0000   0.0000   0.0000

          k =-0.3333-1.0000 0.0000 (  3322 PWs)   bands (ev):

   -41.7838 -25.3397 -25.0710 -18.9174 -18.7652 -18.4900  -3.4435  -2.8761
    -2.2856  -1.5701  -1.1158  -0.8790  13.7886  15.8121  16.1341  16.4683
    17.4527  20.2304  20.5087  21.4671

     occupation numbers 
     1.0000   1.0000   1.0000   1.0000   1.0000   1.0000   1.0000   1.0000
     1.0000   1.0000   1.0000   1.0000   0.0000   0.0000   0.0000   0.0000
     0.0000   0.0000   0.0000   0.0000

     highest occupied, lowest unoccupied level (ev):    -0.8122   11.9913

!    total energy              =    -169.84397546 Ry
     estimated scf accuracy    <          3.1E-10 Ry

     convergence has been achieved in   5 iterations

     Using ACE for calculation of exact exchange
     ACE projected onto    20 (nbndproj) and applied to    20 (nbnd) bands

     total energy              =    -169.84411605 Ry
     Harris-Foulkes estimate   =    -169.84411605 Ry
     est. exchange err (dexx)  =       0.00014059 Ry
     - averaged Fock potential =      33.01710251 Ry
     + Fock energy (ACE)       =     -16.51928287 Ry

     EXX: now go back to refine exchange calculation

     total cpu time spent up to now is     2199.6 secs

     Self-consistent Calculation

     iteration #  1     ecut=    80.00 Ry     beta= 0.70
     Davidson diagonalization with overlap

---- Real-time Memory Report at c_bands before calling an iterative solver
          1891 MiB given to the printing process from OS
             0 MiB allocation reported by mallinfo(arena+hblkhd)
          6327 MiB available memory on the node where the printing process lives
------------------
     ethr =  5.80E-11,  avg # of iterations =  5.9

     total cpu time spent up to now is     2200.1 secs

     total energy              =    -169.84413884 Ry
     estimated scf accuracy    <       0.00000974 Ry

     iteration #  2     ecut=    80.00 Ry     beta= 0.70
     Davidson diagonalization with overlap

---- Real-time Memory Report at c_bands before calling an iterative solver
          1891 MiB given to the printing process from OS
             0 MiB allocation reported by mallinfo(arena+hblkhd)
          6315 MiB available memory on the node where the printing process lives
------------------
     ethr =  4.06E-08,  avg # of iterations =  2.0

     total cpu time spent up to now is     2200.5 secs

     total energy              =    -169.84414114 Ry
     estimated scf accuracy    <       0.00000235 Ry

     iteration #  3     ecut=    80.00 Ry     beta= 0.70
     Davidson diagonalization with overlap

---- Real-time Memory Report at c_bands before calling an iterative solver
          1891 MiB given to the printing process from OS
             0 MiB allocation reported by mallinfo(arena+hblkhd)
          6314 MiB available memory on the node where the printing process lives
------------------
     ethr =  9.80E-09,  avg # of iterations =  2.0

     total cpu time spent up to now is     2200.8 secs

     total energy              =    -169.84414174 Ry
     estimated scf accuracy    <       0.00000006 Ry

     iteration #  4     ecut=    80.00 Ry     beta= 0.70
     Davidson diagonalization with overlap

---- Real-time Memory Report at c_bands before calling an iterative solver
          1891 MiB given to the printing process from OS
             0 MiB allocation reported by mallinfo(arena+hblkhd)
[...]
    17.5721  17.5721  19.5875  24.4707

     occupation numbers 
     1.0000   1.0000   1.0000   1.0000   1.0000   1.0000   1.0000   1.0000
     1.0000   1.0000   1.0000   1.0000   0.0000   0.0000   0.0000   0.0000
     0.0000   0.0000   0.0000   0.0000

          k = 0.5000-0.5000 0.5000 (  3316 PWs)   bands (ev):

   -41.8019 -25.2858 -25.0464 -18.8410 -18.8410 -18.5337  -2.3931  -2.3931
    -2.2097  -2.1189  -1.7374  -1.7374  15.4849  15.4849  15.6272  15.8068
    17.4908  17.4908  19.4860  25.6118

     occupation numbers 
     1.0000   1.0000   1.0000   1.0000   1.0000   1.0000   1.0000   1.0000
     1.0000   1.0000   1.0000   1.0000   0.0000   0.0000   0.0000   0.0000
     0.0000   0.0000   0.0000   0.0000

          k = 0.0000 0.3333 0.0000 (  3327 PWs)   bands (ev):

   -41.8258 -25.4001 -24.7141 -18.8210 -18.8210 -18.6864  -2.9823  -2.9823
    -2.5597  -1.8347  -1.0790  -1.0790  12.9613  15.0810  15.5280  17.3645
    17.6929  17.6929  21.7729  22.4731

     occupation numbers 
     1.0000   1.0000   1.0000   1.0000   1.0000   1.0000   1.0000   1.0000
     1.0000   1.0000   1.0000   1.0000   0.0000   0.0000   0.0000   0.0000
     0.0000   0.0000   0.0000   0.0000

          k =-0.1667 0.5000-0.1667 (  3328 PWs)   bands (ev):

   -41.8109 -25.3973 -24.8455 -18.8498 -18.8202 -18.5984  -2.8060  -2.7983
    -2.4352  -2.0098  -1.2373  -1.2127  13.9482  15.2259  15.7286  16.8370
    17.5662  17.6632  20.6327  23.2824

     occupation numbers 
     1.0000   1.0000   1.0000   1.0000   1.0000   1.0000   1.0000   1.0000
     1.0000   1.0000   1.0000   1.0000   0.0000   0.0000   0.0000   0.0000
     0.0000   0.0000   0.0000   0.0000

          k = 0.6667-0.3333 0.6667 (  3321 PWs)   bands (ev):

   -41.7989 -25.2977 -25.0566 -18.8599 -18.7842 -18.5622  -2.8123  -2.5925
    -2.4837  -1.5980  -1.5633  -1.4176  14.4057  15.7069  15.8733  16.4689
    17.4700  17.8793  19.7883  24.3987

     occupation numbers 
     1.0000   1.0000   1.0000   1.0000   1.0000   1.0000   1.0000   1.0000
     1.0000   1.0000   1.0000   1.0000   0.0000   0.0000   0.0000   0.0000
     0.0000   0.0000   0.0000   0.0000

          k = 0.5000-0.1667 0.5000 (  3334 PWs)   bands (ev):

   -41.8019 -25.3131 -25.0164 -18.8412 -18.7737 -18.6040  -2.9139  -2.4054
    -2.2544  -1.8851  -1.8679  -1.1716  14.3512  15.4863  15.7882  16.6680
    17.5041  17.8646  19.9430  23.1241

     occupation numbers 
     1.0000   1.0000   1.0000   1.0000   1.0000   1.0000   1.0000   1.0000
     1.0000   1.0000   1.0000   1.0000   0.0000   0.0000   0.0000   0.0000
     0.0000   0.0000   0.0000   0.0000

          k = 0.3333 0.0000 0.3333 (  3325 PWs)   bands (ev):

   -41.8169 -25.3868 -24.8082 -18.8124 -18.8042 -18.6728  -2.9766  -2.6276
    -2.3993  -1.9166  -1.5675  -1.0606  13.6075  15.2890  15.4631  17.1028
    17.6401  17.6925  20.7031  22.4129

     occupation numbers 
     1.0000   1.0000   1.0000   1.0000   1.0000   1.0000   1.0000   1.0000
     1.0000   1.0000   1.0000   1.0000   0.0000   0.0000   0.0000   0.0000
     0.0000   0.0000   0.0000   0.0000

          k = 0.0000 0.6667 0.0000 (  3347 PWs)   bands (ev):

   -41.8020 -25.4459 -24.8599 -18.8844 -18.8844 -18.4754  -3.1134  -2.7639
    -2.7639  -1.4453  -1.1193  -1.1193  13.8486  15.9546  16.1455  16.2860
    17.5086  17.5086  22.1664  23.0086

     occupation numbers 
     1.0000   1.0000   1.0000   1.0000   1.0000   1.0000   1.0000   1.0000
     1.0000   1.0000   1.0000   1.0000   0.0000   0.0000   0.0000   0.0000
     0.0000   0.0000   0.0000   0.0000

          k = 0.8333-0.1667 0.8333 (  3314 PWs)   bands (ev):

   -41.7930 -25.4025 -24.9850 -18.8973 -18.8468 -18.4537  -3.4139  -2.6769
    -2.5855  -1.2962  -1.2230  -1.0279  13.7779  15.8868  16.2123  16.6667
    17.4449  18.4686  21.1322  22.1143

     occupation numbers 
     1.0000   1.0000   1.0000   1.0000   1.0000   1.0000   1.0000   1.0000
     1.0000   1.0000   1.0000   1.0000   0.0000   0.0000   0.0000   0.0000
     0.0000   0.0000   0.0000   0.0000

          k = 0.6667-0.0000 0.6667 (  3318 PWs)   bands (ev):

   -41.7930 -25.2298 -25.1735 -18.8758 -18.7231 -18.5821  -3.2528  -2.6740
    -2.3199  -1.6885  -1.3969  -0.9751  13.9941  15.8599  15.9252  16.4875
    17.4344  19.2552  20.8560  20.9961

     occupation numbers 
     1.0000   1.0000   1.0000   1.0000   1.0000   1.0000   1.0000   1.0000
     1.0000   1.0000   1.0000   1.0000   0.0000   0.0000   0.0000   0.0000
     0.0000   0.0000   0.0000   0.0000

          k = 0.0000-1.0000 0.0000 (  3306 PWs)   bands (ev):

   -41.7900 -25.4678 -24.9310 -18.9159 -18.9159 -18.3668  -3.6811  -2.6174
    -2.6174  -1.1826  -1.1826  -0.8191  13.5317  15.6420  16.5068  17.4417
    17.4417  18.5160  20.7197  22.6158

     occupation numbers 
     1.0000   1.0000   1.0000   1.0000   1.0000   1.0000   1.0000   1.0000
     1.0000   1.0000   1.0000   1.0000   0.0000   0.0000   0.0000   0.0000
     0.0000   0.0000   0.0000   0.0000

          k = 0.6667-0.3333 1.0000 (  3317 PWs)   bands (ev):

   -41.7989 -25.3584 -24.9888 -18.8759 -18.7771 -18.5611  -2.9358  -2.9207
    -2.3988  -1.5905  -1.4603  -1.0721  14.0473  15.7390  16.0612  16.3543
    17.5009  18.0669  20.9368  22.3947

     occupation numbers 
     1.0000   1.0000   1.0000   1.0000   1.0000   1.0000   1.0000   1.0000
     1.0000   1.0000   1.0000   1.0000   0.0000   0.0000   0.0000   0.0000
     0.0000   0.0000   0.0000   0.0000

          k = 0.5000-0.1667 0.8333 (  3314 PWs)   bands (ev):

   -41.7930 -25.2313 -25.1720 -18.8930 -18.6790 -18.6090  -3.0902  -2.9764
    -2.0581  -1.9023  -1.1630  -1.1182  14.0464  15.8448  16.0434  16.2856
    17.4621  19.1315  20.3027  22.8139

     occupation numbers 
     1.0000   1.0000   1.0000   1.0000   1.0000   1.0000   1.0000   1.0000
     1.0000   1.0000   1.0000   1.0000   0.0000   0.0000   0.0000   0.0000
     0.0000   0.0000   0.0000   0.0000

          k =-0.3333-1.0000 0.0000 (  3322 PWs)   bands (ev):

   -41.7900 -25.3432 -25.0756 -18.9179 -18.7666 -18.4930  -3.4401  -2.8765
    -2.2887  -1.5739  -1.1200  -0.8858  13.7994  15.8257  16.1395  16.4818
    17.4626  20.2414  20.5161  21.4772

     occupation numbers 
     1.0000   1.0000   1.0000   1.0000   1.0000   1.0000   1.0000   1.0000
     1.0000   1.0000   1.0000   1.0000   0.0000   0.0000   0.0000   0.0000
     0.0000   0.0000   0.0000   0.0000

     highest occupied, lowest unoccupied level (ev):    -0.8191   12.0155

!    total energy              =    -169.84414748 Ry
     estimated scf accuracy    <          2.1E-09 Ry

     convergence has been achieved in   3 iterations

     Using ACE for calculation of exact exchange
     ACE projected onto    20 (nbndproj) and applied to    20 (nbnd) bands

     total energy              =    -169.84414767 Ry
     Harris-Foulkes estimate   =    -169.84414767 Ry
     est. exchange err (dexx)  =       0.00000018 Ry
     - averaged Fock potential =      33.04808942 Ry
     + Fock energy (ACE)       =     -16.52449300 Ry

     EXX: now go back to refine exchange calculation

     total cpu time spent up to now is     3588.7 secs

     Self-consistent Calculation

     iteration #  1     ecut=    80.00 Ry     beta= 0.70
     Davidson diagonalization with overlap

---- Real-time Memory Report at c_bands before calling an iterative solver
          1891 MiB given to the printing process from OS
             0 MiB allocation reported by mallinfo(arena+hblkhd)
          6315 MiB available memory on the node where the printing process lives
------------------
     ethr =  3.78E-10,  avg # of iterations =  2.0

     total cpu time spent up to now is     3589.0 secs

     total energy              =    -169.84414770 Ry
     estimated scf accuracy    <       0.00000001 Ry

     iteration #  2     ecut=    80.00 Ry     beta= 0.70
     Davidson diagonalization with overlap

---- Real-time Memory Report at c_bands before calling an iterative solver
          1891 MiB given to the printing process from OS
             0 MiB allocation reported by mallinfo(arena+hblkhd)
          6303 MiB available memory on the node where the printing process lives
------------------
     ethr =  4.90E-11,  avg # of iterations =  2.0

     total cpu time spent up to now is     3589.4 secs

     End of self-consistent calculation

          k = 0.0000 0.0000 0.0000 (  3287 PWs)   bands (ev):

   -41.8380 -25.3754 -24.6386 -18.7893 -18.7893 -18.7893  -3.0648  -3.0648
    -3.0648  -1.0904  -1.0904  -1.0904  12.0164  15.2578  15.2578  17.8155
    17.8155  17.8155  22.1541  22.1541

     occupation numbers 
     1.0000   1.0000   1.0000   1.0000   1.0000   1.0000   1.0000   1.0000
     1.0000   1.0000   1.0000   1.0000   0.0000   0.0000   0.0000   0.0000
     0.0000   0.0000   0.0000   0.0000

          k =-0.1667 0.1667-0.1667 (  3329 PWs)   bands (ev):

   -41.8291 -25.3875 -24.7028 -18.8023 -18.8023 -18.7322  -2.9337  -2.9337
    -2.8364  -1.3900  -1.2187  -1.2187  12.7321  15.3080  15.3080  17.5069
    17.7341  17.7341  21.0193  22.8319

     occupation numbers 
     1.0000   1.0000   1.0000   1.0000   1.0000   1.0000   1.0000   1.0000
     1.0000   1.0000   1.0000   1.0000   0.0000   0.0000   0.0000   0.0000
     0.0000   0.0000   0.0000   0.0000

          k =-0.3333 0.3333-0.3333 (  3305 PWs)   bands (ev):

   -41.8112 -25.3608 -24.8881 -18.8283 -18.8283 -18.6042  -2.6194  -2.6194
    -2.3937  -1.9142  -1.5204  -1.5204  14.2092  15.4220  15.4220  16.9830
    17.5723  17.5723  19.5880  24.4711

     occupation numbers 
     1.0000   1.0000   1.0000   1.0000   1.0000   1.0000   1.0000   1.0000
     1.0000   1.0000   1.0000   1.0000   0.0000   0.0000   0.0000   0.0000
     0.0000   0.0000   0.0000   0.0000

          k = 0.5000-0.5000 0.5000 (  3316 PWs)   bands (ev):

   -41.8022 -25.2852 -25.0458 -18.8412 -18.8412 -18.5339  -2.3928  -2.3928
    -2.2094  -2.1186  -1.7372  -1.7372  15.4851  15.4851  15.6279  15.8072
    17.4911  17.4911  19.4864  25.6122

     occupation numbers 
     1.0000   1.0000   1.0000   1.0000   1.0000   1.0000   1.0000   1.0000
     1.0000   1.0000   1.0000   1.0000   0.0000   0.0000   0.0000   0.0000
     0.0000   0.0000   0.0000   0.0000

          k = 0.0000 0.3333 0.0000 (  3327 PWs)   bands (ev):

   -41.8261 -25.3995 -24.7135 -18.8212 -18.8212 -18.6865  -2.9819  -2.9819
    -2.5594  -1.8344  -1.0788  -1.0788  12.9621  15.0812  15.5282  17.3647
    17.6931  17.6931  21.7734  22.4735

     occupation numbers 
     1.0000   1.0000   1.0000   1.0000   1.0000   1.0000   1.0000   1.0000
     1.0000   1.0000   1.0000   1.0000   0.0000   0.0000   0.0000   0.0000
     0.0000   0.0000   0.0000   0.0000

          k =-0.1667 0.5000-0.1667 (  3328 PWs)   bands (ev):

   -41.8112 -25.3967 -24.8449 -18.8500 -18.8204 -18.5986  -2.8056  -2.7979
    -2.4348  -2.0095  -1.2370  -1.2124  13.9489  15.2263  15.7288  16.8373
    17.5664  17.6634  20.6332  23.2828

     occupation numbers 
     1.0000   1.0000   1.0000   1.0000   1.0000   1.0000   1.0000   1.0000
     1.0000   1.0000   1.0000   1.0000   0.0000   0.0000   0.0000   0.0000
     0.0000   0.0000   0.0000   0.0000

          k = 0.6667-0.3333 0.6667 (  3321 PWs)   bands (ev):

   -41.7992 -25.2971 -25.0560 -18.8600 -18.7844 -18.5624  -2.8119  -2.5921
    -2.4834  -1.5977  -1.5630  -1.4174  14.4062  15.7071  15.8738  16.4693
    17.4702  17.8796  19.7887  24.3989

     occupation numbers 
     1.0000   1.0000   1.0000   1.0000   1.0000   1.0000   1.0000   1.0000
     1.0000   1.0000   1.0000   1.0000   0.0000   0.0000   0.0000   0.0000
     0.0000   0.0000   0.0000   0.0000

          k = 0.5000-0.1667 0.5000 (  3334 PWs)   bands (ev):

   -41.8022 -25.3125 -25.0158 -18.8414 -18.7739 -18.6041  -2.9135  -2.4050
    -2.2540  -1.8849  -1.8676  -1.1714  14.3517  15.4865  15.7885  16.6683
    17.5043  17.8649  19.9435  23.1245

     occupation numbers 
     1.0000   1.0000   1.0000   1.0000   1.0000   1.0000   1.0000   1.0000
     1.0000   1.0000   1.0000   1.0000   0.0000   0.0000   0.0000   0.0000
     0.0000   0.0000   0.0000   0.0000

          k = 0.3333 0.0000 0.3333 (  3325 PWs)   bands (ev):

   -41.8172 -25.3862 -24.8076 -18.8125 -18.8043 -18.6729  -2.9762  -2.6273
    -2.3989  -1.9162  -1.5672  -1.0604  13.6083  15.2892  15.4634  17.1031
    17.6403  17.6928  20.7036  22.4134

     occupation numbers 
     1.0000   1.0000   1.0000   1.0000   1.0000   1.0000   1.0000   1.0000
     1.0000   1.0000   1.0000   1.0000   0.0000   0.0000   0.0000   0.0000
     0.0000   0.0000   0.0000   0.0000

          k = 0.0000 0.6667 0.0000 (  3347 PWs)   bands (ev):

   -41.8023 -25.4453 -24.8593 -18.8846 -18.8846 -18.4756  -3.1129  -2.7636
    -2.7636  -1.4450  -1.1190  -1.1190  13.8490  15.9552  16.1456  16.2864
    17.5089  17.5089  22.1664  23.0091

     occupation numbers 
     1.0000   1.0000   1.0000   1.0000   1.0000   1.0000   1.0000   1.0000
     1.0000   1.0000   1.0000   1.0000   0.0000   0.0000   0.0000   0.0000
     0.0000   0.0000   0.0000   0.0000

          k = 0.8333-0.1667 0.8333 (  3314 PWs)   bands (ev):

   -41.7933 -25.4019 -24.9844 -18.8974 -18.8470 -18.4538  -3.4134  -2.6766
    -2.5852  -1.2959  -1.2227  -1.0276  13.7783  15.8873  16.2124  16.6671
    17.4451  18.4690  21.1326  22.1147

     occupation numbers 
     1.0000   1.0000   1.0000   1.0000   1.0000   1.0000   1.0000   1.0000
     1.0000   1.0000   1.0000   1.0000   0.0000   0.0000   0.0000   0.0000
     0.0000   0.0000   0.0000   0.0000

          k = 0.6667-0.0000 0.6667 (  3318 PWs)   bands (ev):

   -41.7933 -25.2292 -25.1730 -18.8760 -18.7233 -18.5822  -3.2523  -2.6736
    -2.3196  -1.6882  -1.3967  -0.9749  13.9946  15.8601  15.9257  16.4880
    17.4346  19.2555  20.8565  20.9965

     occupation numbers 
     1.0000   1.0000   1.0000   1.0000   1.0000   1.0000   1.0000   1.0000
     1.0000   1.0000   1.0000   1.0000   0.0000   0.0000   0.0000   0.0000
     0.0000   0.0000   0.0000   0.0000

          k = 0.0000-1.0000 0.0000 (  3306 PWs)   bands (ev):

   -41.7903 -25.4672 -24.9304 -18.9160 -18.9160 -18.3670  -3.6806  -2.6171
    -2.6171  -1.1823  -1.1823  -0.8188  13.5322  15.6424  16.5069  17.4420
    17.4420  18.5167  20.7201  22.6161

     occupation numbers 
     1.0000   1.0000   1.0000   1.0000   1.0000   1.0000   1.0000   1.0000
     1.0000   1.0000   1.0000   1.0000   0.0000   0.0000   0.0000   0.0000
     0.0000   0.0000   0.0000   0.0000

          k = 0.6667-0.3333 1.0000 (  3317 PWs)   bands (ev):

   -41.7993 -25.3578 -24.9882 -18.8760 -18.7773 -18.5613  -2.9354  -2.9203
    -2.3985  -1.5903  -1.4600  -1.0718  14.0478  15.7393  16.0615  16.3547
    17.5011  18.0672  20.9372  22.3951

     occupation numbers 
     1.0000   1.0000   1.0000   1.0000   1.0000   1.0000   1.0000   1.0000
     1.0000   1.0000   1.0000   1.0000   0.0000   0.0000   0.0000   0.0000
     0.0000   0.0000   0.0000   0.0000

          k = 0.5000-0.1667 0.8333 (  3314 PWs)   bands (ev):

   -41.7933 -25.2307 -25.1714 -18.8932 -18.6792 -18.6092  -3.0899  -2.9759
    -2.0578  -1.9021  -1.1627  -1.1180  14.0468  15.8450  16.0438  16.2860
    17.4624  19.1318  20.3032  22.8142

     occupation numbers 
     1.0000   1.0000   1.0000   1.0000   1.0000   1.0000   1.0000   1.0000
     1.0000   1.0000   1.0000   1.0000   0.0000   0.0000   0.0000   0.0000
     0.0000   0.0000   0.0000   0.0000

          k =-0.3333-1.0000 0.0000 (  3322 PWs)   bands (ev):

   -41.7903 -25.3426 -25.0751 -18.9180 -18.7668 -18.4932  -3.4396  -2.8762
    -2.2884  -1.5736  -1.1197  -0.8856  13.7998  15.8262  16.1397  16.4822
    17.4628  20.2418  20.5163  21.4776

     occupation numbers 
     1.0000   1.0000   1.0000   1.0000   1.0000   1.0000   1.0000   1.0000
     1.0000   1.0000   1.0000   1.0000   0.0000   0.0000   0.0000   0.0000
     0.0000   0.0000   0.0000   0.0000

     highest occupied, lowest unoccupied level (ev):    -0.8188   12.0164

!    total energy              =    -169.84414770 Ry
     estimated scf accuracy    <          2.4E-09 Ry

     convergence has been achieved in   2 iterations

     Using ACE for calculation of exact exchange
     ACE projected onto    20 (nbndproj) and applied to    20 (nbnd) bands

!!   total energy              =    -169.84414770 Ry
     Harris-Foulkes estimate   =    -169.84414771 Ry
     est. exchange err (dexx)  =          5.8E-09 Ry
     - averaged Fock potential =      33.04910067 Ry
     + Fock energy (ACE)       =     -16.52460767 Ry

     EXX self-consistency reached

     Writing all to output data dir ./out_fg/caf2fg.save/ :
     XML data file, charge density, pseudopotentials, collected wavefunctions

     init_run     :      0.22s CPU      0.24s WALL (       1 calls)
     electrons    :     10.28s CPU     10.87s WALL (       6 calls)

     Called by init_run:
     aceinit0     :      0.00s CPU      0.00s WALL (       1 calls)
     wfcinit      :      0.10s CPU      0.12s WALL (       1 calls)
     wfcinit:wfcr :      0.09s CPU      0.11s WALL (      16 calls)
     potinit      :      0.01s CPU      0.01s WALL (       1 calls)
     hinit0       :      0.09s CPU      0.09s WALL (       1 calls)

     Called by electrons:
     c_bands      :      8.60s CPU      9.09s WALL (      28 calls)
     sum_band     :      1.35s CPU      1.43s WALL (      28 calls)
     v_of_rho     :      0.32s CPU      0.33s WALL (      29 calls)
     v_h          :      0.01s CPU      0.01s WALL (      29 calls)
     v_xc         :      0.31s CPU      0.32s WALL (      29 calls)
     mix_rho      :      0.01s CPU      0.01s WALL (      28 calls)

     Called by c_bands:
     init_us_2    :      0.13s CPU      0.14s WALL (     912 calls)
     cegterg      :      8.36s CPU      8.83s WALL (     448 calls)

     Called by sum_band:
     sum_band:wei :      0.00s CPU      0.00s WALL (      28 calls)
     sum_band:loo :      1.33s CPU      1.41s WALL (      28 calls)
     sum_band:buf :      0.01s CPU      0.01s WALL (     448 calls)
     sum_band:ini :      0.06s CPU      0.07s WALL (     448 calls)

     Called by *egterg:
     cdiaghg      :      0.38s CPU      0.40s WALL (    1591 calls)
     cegterg:over :      0.23s CPU      0.24s WALL (    1239 calls)
     cegterg:upda :      0.11s CPU      0.11s WALL (    1239 calls)
     cegterg:last :      0.18s CPU      0.19s WALL (    1107 calls)
     h_psi        :      7.35s CPU      7.79s WALL (    1703 calls)
     g_psi        :      0.05s CPU      0.05s WALL (    1239 calls)

     Called by h_psi:
     h_psi:calbec :      0.19s CPU      0.20s WALL (    1703 calls)
     vloc_psi     :      6.87s CPU      7.28s WALL (    1703 calls)
                                        0.00s GPU  (    1703 calls)
     add_vuspsi   :      0.12s CPU      0.12s WALL (    1703 calls)

     General routines
     calbec       :      0.32s CPU      0.35s WALL (    3324 calls)
     fft          :      0.13s CPU      0.13s WALL (     283 calls)
     ffts         :      0.01s CPU      0.01s WALL (      28 calls)
     fftw         :      7.47s CPU      7.92s WALL (   60906 calls)
     fftc         :   2943.87s CPU   3193.74s WALL (16588800 calls)
     fftcw        :      0.67s CPU      0.89s WALL (    5760 calls)

     Parallel routines

     EXX routines
     exx_grid     :      0.00s CPU      0.01s WALL (       1 calls)
     exxinit      :      7.92s CPU     10.61s WALL (       6 calls)
     vexx         :   3936.19s CPU   4265.11s WALL (      96 calls)
     matcalc      :      0.13s CPU      0.15s WALL (    1621 calls)
     aceupdate    :      0.00s CPU      0.01s WALL (      96 calls)
     vexxace      :      0.18s CPU      0.20s WALL (    1349 calls)
     aceinit      :   3936.21s CPU   4265.14s WALL (      96 calls)

     PWSCF        :      1h 5m CPU      1h11m WALL


   This run was terminated on:  12: 7:49  25Jun2026            

=------------------------------------------------------------------------------=
   JOB DONE.
=------------------------------------------------------------------------------=
